<VTKFile type="PolyData" version="1.0" byte_order="LittleEndian" header_type="UInt64">
  <PolyData>
    <Piece NumberOfPoints="2601" NumberOfVerts="0" NumberOfLines="0" NumberOfStrips="0" NumberOfPolys="2500">
      <PointData>
        <DataArray type="Float32" Name="zvalue" NumberOfComponents="1" format="ascii" RangeMin="-1.8318099362503981" RangeMax="1.4869817207164506">
          0.7853833914929361 0.7339725014906836 0.7056997097054172 0.7289093298917759 0.704520556053541 0.7052001482405115
          0.7230673253541712 0.7307424706527339 0.7362327207931297 0.7512907896217718 0.7630773415356711 0.7585645062977913
          0.8167752729855571 0.8224306720124916 0.8428529065442828 0.8841734314229638 0.9373711392274314 0.9538111763139088
          0.9827548094935953 0.9965371295042331 1.0321646315652624 1.024686754885456 1.0501564959470338 1.0649128626334214
          1.0056863143785382 0.8710271636042537 0.8996430487274263 0.9017913040256554 0.914722272259598 0.9357154831589187
          0.951514541813797 0.89238477325323 0.9133030272767442 0.9065086411479135 0.8915843014011466 0.8712541448192352
          0.7877111136062313 0.8170845217679636 0.8420086887378758 0.9028164373455176 0.9482567084276596 0.9625965700711356
          0.9877760162633414 1.0370085032020202 1.0356685983558744 1.0401265792429164 1.0958422756836106 1.1330146736664217
          1.115745365564917 1.1630627847724193 1.1780095467132758 0.7399929686647266 0.691714857018233 0.7002435522893188
          0.6563988295509139 0.6818905358010938 0.654147392173964 0.6625248937600401 0.6925456961270231 0.7167806190416726
          0.7123216277421369 0.7254069545670601 0.7221293482323822 0.7369617935573949 0.7863973191329162 0.8095549627203694
          0.8276112607310693 0.9235350884437464 0.9623869462880528 0.9684270841414898 1.0162424411825182 1.0316971357628297
          1.0376310721361475 1.0464480945489885 0.9915211765528844 0.8441155408227977 0.8782615631883978 0.8937093419952851
          0.9000878406623948 0.922914085114477 0.9359883746868665 0.9126110269410976 0.8723355637796648 0.8830414516592769
          0.9117229346784933 0.9207239068691309 0.86488041982102 0.8227307419294623 0.813157466988152 0.8202236242843198
          0.8543968632275508 0.9112200286029656 0.9398330077581445 0.9788121419425737 1.0294346427425078 1.0232149714065721
          1.0478838449270418 1.1158063776440854 1.1461860662018326 1.1357018471811773 1.1864553634549526 1.1799662014608854
          0.7433276070421019 0.678948859226097 0.6374225217763845 0.6118337909418274 0.6218352067228078 0.6128373607228216
          0.6378524804023893 0.6573529328925196 0.6900798633698847 0.6881594315651163 0.6823562061569801 0.6865576096147047
          0.7079563107714919 0.7552092910331855 0.7743163571878495 0.7968296772307311 0.8933423086274026 0.9407870450685348
          0.9602722257651446 1.0262287445953688 1.007997288275393 1.0246672446111396 0.9881260461996677 0.8317247461546772
          0.867966621766235 0.8745833953933603 0.8818306051613066 0.8876646535756079 0.91302329940613 0.9296088242161952
          0.8882527130770965 0.8456192866576221 0.8709617036257427 0.9368455626290031 0.9314880429031673 0.8718383719562302
          0.8290020295570796 0.7986603392150637 0.8236797943242739 0.8601896596729324 0.9207677707682317 0.9057790580421711
          0.9638151053246906 1.000265202450561 1.0406619892475084 1.0582181043688534 1.0983591673666135 1.135420072463659
          1.145776388367278 1.1906361602810267 1.1915861436864652 0.7488474220669697 0.6854899027491804 0.6276335162577606
          0.5942736378945775 0.5586336888600856 0.6031149556023984 0.5865080169144404 0.5753085486158188 0.6232521606185132
          0.6597839194554751 0.6484112243868972 0.6424758146460822 0.6723172186664643 0.699115062202416 0.7592495323357548
          0.7773884967490915 0.8740446430505633 0.9132499385705447 0.9477448635691126 1.007961004174218 1.000112529407933
          0.9590736687006337 0.8126477278074751 0.8442617023797109 0.8727776255986224 0.872138630425999 0.8659367568980273
          0.8717113430633476 0.8907647958249696 0.8974971652360185 0.8728327077328217 0.8366440877630105 0.8675641824338878
          0.9349030077215947 0.9138942736407887 0.8714356927037764 0.8197844864214312 0.7739573088516013 0.8049861776612025
          0.8972937537714105 0.9270727551259229 0.9174266183406267 0.938949197059523 0.9725596757154342 1.041709404455086
          1.0773617457049638 1.085487372775337 1.1187129851420343 1.155915786465859 1.1763979944879386 1.1865439444227717
          0.7684725872275033 0.6831253196674859 0.6404271634293657 0.5997784813893743 0.5871232041100427 0.5680294934590979
          0.546041212115456 0.5278887329593124 0.5378819345887985 0.588364027467715 0.6135693376736895 0.6094947925264301
          0.6295266771444608 0.666628256772088 0.7186910735030835 0.7679724008166356 0.8445293706821597 0.8850093748804405
          0.9301418852350252 0.9699325198999522 0.9202138240519065 0.7906198179160812 0.8275932320851344 0.8499433654754902
          0.8638326141245048 0.8700289324539011 0.8595530646663312 0.8641424192563407 0.8637813558875462 0.875380200668937
          0.8530380454805029 0.8609923680201748 0.8969728568328492 0.9223417046213229 0.9053573276688017 0.8735503906229561
          0.8087599917185081 0.7739312491936097 0.7729836238875968 0.9226394970810226 0.9281056733395076 0.9115579464994933
          0.9339118543044433 0.9605176043652501 1.0379321624595306 1.0900391783888113 1.0788860325095355 1.1170391019596024
          1.1751867403067129 1.1820566385079685 1.2078876699869088 0.7840192917232054 0.6966879650670227 0.6402297279633526
          0.6273614805491114 0.6029803325206033 0.5670698393237084 0.5032592384724556 0.4729798751024194 0.47098022136386114
          0.520122332513225 0.5665241830290436 0.580582016715031 0.5882695048845314 0.6218936465049463 0.6714720137733695
          0.7541772449321696 0.8050067503891062 0.8303186386942584 0.8915992574934325 0.8624842514323893 0.7290805246486682
          0.8088874164331329 0.8360614537960392 0.847336592438273 0.8553616556427527 0.8574161128480251 0.8520039897472239
          0.8522708140316145 0.8418839773434053 0.861445214077669 0.842217704671187 0.8569587058162228 0.909206735742506
          0.9301249550856981 0.9462985490835989 0.9032795302690384 0.8226684311519574 0.793553080044643 0.7927530498776068
          0.8909423471566265 0.9454852753003319 0.8766646646643967 0.9389424844158465 0.9806113206453587 1.0523833768308122
          1.1090447917818103 1.109579141266187 1.142882797993622 1.1872542735803628 1.208185220707878 1.215858607826277
          0.8359509836539136 0.7284839476598741 0.6857859085059003 0.632051073964577 0.6035646114133241 0.5857714159238642
          0.4893902189967313 0.4745048102653073 0.4615184755118165 0.46569358117469206 0.49696291286328037 0.5466367342252447
          0.5508338351060783 0.5735292337162992 0.6248354135056526 0.682116859273462 0.7502000806649772 0.7899166738684174
          0.7870823224637841 0.6701686505990629 0.7567417744161505 0.7984177678388564 0.8209009590586406 0.8280630170790525
          0.8404014535363479 0.8416668766709573 0.846201187745764 0.8397357621494992 0.8345820639075309 0.846014079070505
          0.8320131177990072 0.8808893469568703 0.925565500978367 0.9542054342448283 0.974756905166589 0.9666966039248018
          0.8725027672249156 0.8350132011971456 0.8264544763355406 0.8808577291635039 0.9572147780717263 0.9249413140008373
          0.9519871005821064 1.0062964375560293 1.073866293527783 1.1052709879818066 1.1117741626913864 1.1574293103161502
          1.1945208067635822 1.2074049323515057 1.228143718697846 0.8683135706396091 0.770970324773145 0.7107984252808679
          0.6657291585327733 0.6172021721980737 0.5583290532468961 0.4912295855223473 0.4548828503501596 0.432136148448304
          0.43545423966657865 0.4624982057063439 0.48486555200893044 0.5180977635175537 0.5176881094193939 0.5527680246372975
          0.6354353436624263 0.6342928268766436 0.700244795135018 0.5875111475280176 0.683625437912024 0.7256874556690828
          0.7833449308712249 0.8030839843228713 0.8055020735807716 0.8223783993177525 0.8211755823360801 0.834222589025142
          0.8379452138100468 0.830250978541638 0.8345835127241913 0.8549649601786469 0.8876412967260477 0.9167713063821672
          0.948837621266452 0.9757007707375721 0.9817441590454921 0.9571816388148168 0.9038206288324558 0.8845273062585883
          0.9206325650430204 0.9357310094863607 0.9768564171250503 0.9866785269143338 1.0169624961603692 1.097210072349059
          1.1051321133246932 1.1061365657023325 1.1618982983980464 1.1884544943696562 1.2013760662340578 1.2308257174031259
          0.870918693288955 0.7979113002999453 0.7473315789511772 0.6976554404533589 0.636119483083162 0.5709539964084399
          0.47524646963643397 0.43314925211206273 0.42015162144811014 0.4196422927716043 0.4240263751960579 0.4520870381572896
          0.478708958511202 0.4946647439197187 0.4969732837438842 0.5283433597997442 0.569611316803912 0.4213576375736033
          0.5920873757007054 0.6401890044057783 0.7092089672983736 0.7623929313200346 0.7835439216954203 0.7928768121752133
          0.7985724795997823 0.8001137832982956 0.8048452484251843 0.8209567709643081 0.8256782617480691 0.845675271115205
          0.8738537176268962 0.8584071010838348 0.9311580156606648 0.9460540069082777 0.9818569704167193 0.9921858802944528
          0.9844977442192989 0.936194443538677 0.9559164911707364 0.9606615731491251 0.9459199553918941 0.9985557936340699
          1.003219274050325 1.011903302088923 1.0954521008437483 1.100208609085278 1.088473125506144 1.1468141655310204
          1.1750542255453316 1.199658822110068 1.219674143150871 0.9058772595391743 0.8284757331168374 0.7677501506392178
          0.700925701468742 0.6356460387889814 0.5626360592695885 0.5034867338467307 0.43965841559866475 0.4074834131043991
          0.40580835605118276 0.37622250095072574 0.3928670268879847 0.42401373727775316 0.44300526454390005 0.4437399771795238
          0.41470722511824887 0.2819637471323396 0.46444654989991313 0.5280739970824648 0.6269561539381836 0.6713353817650702
          0.7273544696391743 0.744925483092134 0.7609398291224905 0.775488797295408 0.7790881450670586 0.7845800597077306
          0.7970491039210363 0.8199121944085548 0.8558237447655904 0.8578859487358962 0.8785400924179978 0.935330521519965
          0.9325385571067366 0.9581141535097909 0.9827524001463775 0.994274912839026 0.9669269939807174 0.9544918694100668
          1.0138640536016585 1.004889839235624 1.0408292250524203 1.0243759999615143 1.0363895214657732 1.0649255208431658
          1.0914724021489546 1.0846192017061171 1.1316275070087018 1.160125967921803 1.196414029470451 1.217790628533448
          0.9152899604259144 0.8608997380580291 0.7839057504377793 0.7077187846897883 0.642799559094724 0.572478011532817
          0.5167115213908289 0.46135638390968753 0.41383801103624485 0.3679960655011187 0.35467164836005916 0.33255592666494943
          0.33103487171584944 0.32320255554619265 0.3149943957748013 0.19720001550172633 0.37680578702552037 0.4157941364694314
          0.5153553252803069 0.5763590786529794 0.6344131865590564 0.6643320335086489 0.7007258379513766 0.7176513898355129
          0.733089431835289 0.7352973598823581 0.7437613987834636 0.7589852663337028 0.8408064356592531 0.847254031279924
          0.8531443077260313 0.863464099406324 0.8775490391041244 0.9186097038817662 0.9267596704013187 0.9507321291857402
          0.9543718887672894 0.9545158270949584 0.9158744045298133 0.9932399932970317 1.0220591995865456 1.0493947608720569
          1.0861306236156936 1.057112796988106 1.078543836057855 1.079918964462045 1.0789849971425987 1.134472454466256
          1.153050074245676 1.190246327760594 1.223282049938471 0.939918886975654 0.8898726491819331 0.8102765661848467
          0.7065108402155827 0.6399340045547125 0.571531773559194 0.5175257069976013 0.4645767541091421 0.4108097977553624
          0.36376026729377164 0.3125395175511712 0.29967172490404037 0.27572358368425165 0.18357060633477693 0.012395522409341417
          0.273065295319281 0.3416338190550032 0.4078037847687179 0.47030764122357144 0.5410241368152465 0.5890759693053038
          0.614226736802362 0.647321884191321 0.6518882655469608 0.6567469661146961 0.6815482711744816 0.7084574325578994
          0.7709122034926769 0.8349420303127603 0.8513575812855718 0.8434331367542448 0.8430734439464881 0.8545612093943497
          0.8583804233860732 0.8885349451371897 0.9039439336103806 0.9178718558114068 0.9132144488726407 0.9071676310222493
          0.9602143627594633 1.0446306233355422 1.0467178314877923 1.0851689348906959 1.1056000573375748 1.0902544572341746
          1.0787902195783252 1.1083642544750603 1.142485075225723 1.151937306071092 1.2038798930579135 1.2432666588734052
          0.9553923203422755 0.8968054168237239 0.8072766358483258 0.7434433561425766 0.6132542600609995 0.5493458241558585
          0.5166759678497806 0.46502492251963573 0.4101878821725993 0.33146344787217835 0.2616166712230378 0.23353107930497222
          0.14380125010339667 -0.28301001757547783 0.2296313633771827 0.18567298727467446 0.25764008294171864 0.3989873845042666
          0.433477271802492 0.47524002150571254 0.5090972509162379 0.5523889373744444 0.581431959992964 0.585704123623713
          0.6190338403058073 0.6524880573684452 0.6901626061951036 0.7714173156050588 0.8167569425691824 0.8501941331432719
          0.8380331879521827 0.8344984429321375 0.829856151063328 0.8409892770653896 0.8242045421579605 0.8666030789386456
          0.8786862595072049 0.9107769013846684 0.9013499797879747 0.9084505725249625 1.0162003277561078 1.0428164815461785
          1.0795476368724124 1.1306077083496169 1.1288892552742764 1.1103157230763248 1.1149680537390965 1.172375358393647
          1.1789757755984303 1.2245976936683927 1.2436450949159124 0.9974138001027255 0.8864334557953254 0.8067581434228689
          0.7503736923746516 0.607768967308125 0.530486185572069 0.4895048675756168 0.45908471503144105 0.39180831036664154
          0.28545345878165984 0.2049062052838831 0.08474994790605457 -0.35104283418681226 0.08562514307517168 0.14273367043894253
          0.18173221111851337 0.2700897719981662 0.30448480117446347 0.3324555638610232 0.375528331776685 0.42915787888796125
          0.48453722337886257 0.5195434211165518 0.5321955499899601 0.5859496456385231 0.621508188165214 0.6961314669264649
          0.7461770769616848 0.7801493426290356 0.8112004298138531 0.8291523937002953 0.8246187488727265 0.8150641454687979
          0.8107155528783239 0.8297888755473241 0.8077607377980166 0.849513317123539 0.876889874016787 0.8779078420873151
          0.8822017886583268 0.9915119770733696 1.049497104777989 1.085342823885635 1.1178350759674927 1.1709815199229294
          1.1355885034833093 1.1449237508307486 1.1773316976732653 1.218043214848299 1.2526301537153566 1.2576957471314179
          1.0269441231738683 0.9164890192512672 0.820094066117593 0.7242990113516802 0.6316564546304462 0.5285971916500722
          0.4642460412216139 0.41938862835582025 0.34802606147123333 0.22665764856623985 0.05911682609972385 -0.61855093738857
          -0.0718292603824373 0.04660993766121938 0.08623249601548809 0.1754210361895268 0.22553134995552138 0.19994493743193664
          0.20541257161069884 0.23857785484952085 0.3017834152987408 0.34063550864135433 0.3847817210094936 0.4584560911416273
          0.526918752864371 0.5905524260802806 0.649797765413838 0.6967434374970966 0.7305445746909035 0.7554855331881415
          0.7747745996389558 0.7858853772270642 0.7975822111541995 0.7763940176537022 0.8009423050146265 0.804105844085596
          0.781182233932999 0.8111698140770378 0.85808631523135 0.88199366258066 0.9382859193395433 1.0284874124280434
          1.0810532307149232 1.1368049750931728 1.1938509547912726 1.1865625039435448 1.1921703061787514 1.2065847989932617
          1.2482310999092072 1.2801792309187907 1.289622112916585 1.0466978255662063 0.9755368405011681 0.8608656674261383
          0.7167682779160554 0.6359087614642129 0.5250548749454022 0.4568555859281086 0.3743406603419181 0.2792073301575191
          0.0897464597120563 -0.6704013875204924 -0.19350528303548456 0.031300235986161294 -0.043781876898719624 0.04717384523442968
          0.15687255292791788 0.10421479712634224 0.08664901742640499 0.04700695262359163 0.07309967632387977 0.09996830824232579
          0.16076139495630584 0.22515014652652224 0.352896791952223 0.4021519493387595 0.4878437003085659 0.5444248130691273
          0.6086668226078975 0.6565665759003773 0.7139468983424136 0.7308615797446508 0.7485271583979219 0.7580125276066392
          0.7662996102333356 0.7342147999717513 0.7478556249995646 0.7366906576936615 0.7391892608252201 0.8075930883369338
          0.8822401722838019 0.9043563196221915 1.0237335583029459 1.0836061214351256 1.1616345555061884 1.2108763197685204
          1.2382133097426289 1.2334988061143488 1.2422653543280247 1.2613984528615996 1.316424435760778 1.3186483581683472
          1.0652025639890204 1.002766909874047 0.8661997895797048 0.7055497791632412 0.6299907732192032 0.5355098021181812
          0.4315134998477026 0.33369511610706 0.16127386962564996 -0.5833737704901493 -0.2024708743720687 -0.16135661344463026
          -0.09530479990355915 -0.11875428503562274 0.04703328199662293 0.04263640659123565 0.012216187169620508 -0.03877553790546046
          -0.05391315380798475 -0.06115948107666308 -0.07282922326350577 -0.018059850739927046 0.0430170171661106 0.08867600809557206
          0.21004456020912665 0.3122981730116393 0.3773879157177749 0.448322672881447 0.5117574156940551 0.5783535479244983
          0.6438876979181074 0.6900169646769023 0.714571286270401 0.722196164868647 0.7324690537259683 0.6899141179868684
          0.6940815116597538 0.7136269374225598 0.7462054526933184 0.8174265221178462 0.910976150769366 0.984555733344065
          1.0902783386284651 1.1610059925699845 1.2067019307597275 1.2693149618309414 1.2674350808672534 1.2606202949345977
          1.2889796745299877 1.3326775653985203 1.350973557532726 1.0759804112363414 1.0315732378044178 0.8506619763475118
          0.707844074394493 0.6392456140292234 0.5274145535986076 0.38928931682804335 0.19891867285173662 -0.4838274922047825
          -0.12150584139193343 -0.17898464980647535 -0.18967933903696366 -0.19029904945411996 -0.0673587198498384 -0.0307390148532124
          -0.0765570314008684 -0.053285608574782505 -0.06872132405284898 -0.0944760115325887 -0.12041010550400057 -0.17788116121316566
          -0.1549534970810285 -0.08299173581429722 -0.039678534879489843 0.05583929872613733 0.15168147976181573 0.2520617051565616
          0.319551137337313 0.38000330938911653 0.4298471468138979 0.4756489137603583 0.5631898817235172 0.6361848551894805
          0.6801788853705081 0.726101110344676 0.7131864733991846 0.6895737515733704 0.6892832929132963 0.6982854553049045
          0.790383508500887 0.9101122259953104 0.9258266289768401 1.0808616869880594 1.143099691762649 1.2275721692881423
          1.2639809201877505 1.26368200051839 1.2739149969460606 1.3127019535924913 1.3417505923799666 1.362073825675524
          1.0902678405018957 0.9971061511830517 0.8555138848986028 0.7095198487807703 0.6433361647119997 0.5148453154559967
          0.3130302258923909 -0.3929789412048121 -0.07159578498665442 -0.15561639654642415 -0.13267491038471899 -0.24152744368152976
          -0.2244984031187909 -0.15387543167279075 -0.11520729701432686 -0.1441346656324557 -0.12592848043921695 -0.11070347208721602
          -0.1288891665872111 -0.2199176816448396 -0.2849419025111557 -0.3303725893110593 -0.23647952667715308 -0.17481889705906276
          -0.07664885880626028 0.00021619843682091353 0.11212147802315034 0.18638302353298017 0.2740774375936557 0.3005766381090519
          0.35192241229249654 0.4166549726557382 0.5068895935703728 0.6129876479127528 0.6871014100400863 0.7042806798280511
          0.7000777665015657 0.6884514145010368 0.7194342046146914 0.7618130122623495 0.8933926592944387 0.9322119738582901
          1.0497801237997662 1.13003034112359 1.2280207625890214 1.2389779457550192 1.2532902386088574 1.271676047220752
          1.326653051961765 1.368567514310816 1.3778549159252027 1.0576314914543234 0.9762594056073537 0.8685412685871415
          0.7091048493684582 0.6191753049755181 0.478725798454733 -0.1414999025447535 0.011244297408736599 -0.09872367657311831
          -0.14937071133655694 -0.2101382794963363 -0.3228815453465287 -0.2820990145336144 -0.22563844805845043 -0.22410873302911158
          -0.30805640397220146 -0.27952160138838994 -0.26777423797357564 -0.2615529405425662 -0.3676600462781814 -0.44389503637325883
          -0.51129432543847 -0.41919239320646157 -0.32418436801796485 -0.23723064103785255 -0.15257737004289182 -0.050631563017699464
          0.06662977100856786 0.12637988689496332 0.18234780236145287 0.26497057651056966 0.32981841699260117 0.4084471520921397
          0.49252672922653484 0.6073250952294433 0.6565897601525609 0.6845652289114234 0.6860117723984215 0.7233650808800918
          0.7842336025055047 0.88701006268007 0.950934537562346 1.018009605492894 1.1464298225531029 1.1981168492490362
          1.2495082640599153 1.2655095574161357 1.3058176036704476 1.3486948868736879 1.3771123443232278 1.4077029829426058
          1.0069119376661475 0.9586056361081385 0.8378858036808251 0.7005496599477656 0.5421122587851549 0.04531644172199596
          0.1522272933605905 0.05646376924678126 -0.04535579972037478 -0.18336227549912476 -0.25195584879463334 -0.33088611390904704
          -0.3835748419597655 -0.3453619791647364 -0.35061152709643245 -0.4147934914072069 -0.434291414267586 -0.46962303304152353
          -0.550932288976737 -0.6286391066834967 -0.6821912149596536 -0.7137011595959093 -0.713199639505102 -0.5822458962518843
          -0.5088881653923317 -0.42462010001638223 -0.34059891755929733 -0.21731463833045953 -0.08709897147699354 -0.038568856566161214
          0.031813660796929454 0.1711658668692889 0.2675157975056083 0.39460726857179085 0.5074647510700473 0.6217745230280217
          0.6531706209517495 0.7257918228483062 0.7380242888442182 0.7847544398230347 0.8709581111858169 0.9655356861771881
          1.0080218249789266 1.1206580643795294 1.201035163144268 1.2575247124582054 1.2790251400010644 1.3300078186563278
          1.3698301228730032 1.3946635205555546 1.4251197577463834 0.9959523725943062 0.9235574324504845 0.7842189102413439
          0.6249209906366314 0.13330733750819684 0.2017345945833996 0.21815886214361577 0.23359638946578037 0.07870181964276973
          -0.19123554200915333 -0.3070009262517836 -0.35915242054436086 -0.44675526139602517 -0.46109202075799277 -0.4665636794028374
          -0.5310721645700984 -0.5633877352434322 -0.6413093171651569 -0.7723891790852607 -0.836736901768944 -0.9324482231196102
          -0.9742552815247006 -0.979091643047293 -0.8778888081397348 -0.7449063780769924 -0.6630009116113514 -0.5905642938063814
          -0.4452912362500544 -0.3161110524437847 -0.24180379072693406 -0.18011069612148461 -0.0694065494124888 0.10041942017832978
          0.2512547768223974 0.41728379746750405 0.5462277694156217 0.6230491308563376 0.7385186022898411 0.7786191800899718
          0.7956785641946515 0.8326277701678364 0.9552690539975021 1.0040027535781275 1.1091164376057203 1.1945407351004171
          1.2639433327676926 1.291751513603221 1.3284112962124206 1.3713492141682955 1.4130670752568721 1.4343697862089504
          0.9821269336091502 0.8743361841851084 0.6664220922287185 0.22006300181137253 0.2653600320707996 0.25937897546794036
          0.3314334954532196 0.2497701862105021 0.10222926179358771 -0.16548849005134306 -0.34703525565397797 -0.44802549583273765
          -0.4626098613580679 -0.6048927110401289 -0.6807434398801218 -0.740262709210844 -0.7710604982020124 -0.8776571758862931
          -1.2475223975454763 -1.4047813969146188 -1.3125295824238348 -1.3832582794931536 -1.4068917095836564 -1.3375469656168095
          -1.1343408852054964 -0.9601083598920447 -0.8145618543156184 -0.651406273957128 -0.4674715326865102 -0.3885934722293023
          -0.3175674408238083 -0.226078629730593 -0.057350342383683306 0.1423869655255492 0.3260945903566367 0.44603757503903896
          0.6010703076763358 0.7473666970403855 0.7815660878482181 0.8120971926745982 0.8176089516798826 0.9383378820276582
          1.0183139053154382 1.11656594363368 1.1822171030569093 1.2549860581038739 1.2958597523466096 1.3490603949247537
          1.3740523020392212 1.4277793057010244 1.4671598831710853 0.9541974459344992 0.7591906142091253 0.28157350946527626
          0.32467249422520966 0.3956360612193282 0.3447154309081245 0.34187301464476716 0.26757965525945465 0.1342090853070039
          -0.1042893186083792 -0.24173304589709915 -0.41738307960715687 -0.4691746005789782 -0.5795836017788788 -0.7191787505461299
          -0.7539471619499137 -0.7590778777020941 -1.1369052680557756 -1.44979541605439 -1.6493303350079722 -1.5948309929928588
          -1.5547378509083696 -1.5375532124606968 -1.5243274113818182 -1.4022560369116959 -1.230407795163439 -1.0508811784401024
          -0.896381833974543 -0.6828137395951926 -0.5677656945691472 -0.4567267372452557 -0.3129786552944888 -0.11707084692492273
          0.07612585877579339 0.21612739936064487 0.3494984806132891 0.5834290519372879 0.7340190204870675 0.7665870953310967
          0.785741838728581 0.841786272461816 0.8807296668763621 1.01573316401482 1.102720722352047 1.18074139439549
          1.2496143246983806 1.3075602770945536 1.3549761018087378 1.388489596920377 1.4449178787404504 1.474131132311204
          0.8675313394404358 0.32855362056906545 0.383807398172575 0.37779896257752665 0.3515393394063011 0.3171211501508823
          0.33573393943529656 0.27357684446829544 0.1905651001427635 -0.04623292367828786 -0.19448163568301788 -0.33139326042763706
          -0.4265425481584145 -0.5977598644831518 -0.6979010129872442 -0.7273773270189816 -0.9601529649572865 -1.259940749266358
          -1.5278174176270969 -1.5804932905486788 -1.603003467466781 -1.633432157054851 -1.5856780909645098 -1.5773096911732454
          -1.555138879494199 -1.3301228983119693 -1.166458160577821 -1.0511217964909527 -0.8962951426404006 -0.7179782684997239
          -0.626687299223992 -0.4536079194114742 -0.19517424280032342 0.016631035064976266 0.11953443921799847 0.29778500551764403
          0.5385370877865436 0.7127700708444945 0.7395538401591766 0.7552032410810159 0.8267627284215073 0.8762442704749445
          0.9926245001314723 1.094345871133127 1.1698440599775197 1.237147911174182 1.3099010022588795 1.3393047970294087
          1.3826717964055726 1.4557297254059627 1.4814312823064661 0.5471592755114102 0.49050100413826736 0.4264531696054043
          0.37444502218927916 0.3297458969765306 0.32123785801359783 0.3261242729380819 0.2817966623907248 0.21048256141668123
          0.0031878507741649057 -0.13076577749899312 -0.2556979520800616 -0.34921112579703284 -0.4682954751718842 -0.6350126595748548
          -0.7742161181767326 -1.2068246178650126 -1.5431568984366872 -1.4939867443044061 -1.5125435844287607 -1.6018514052542099
          -1.5686872624502306 -1.6702771549558606 -1.5932440977536768 -1.5696392880772707 -1.5247501396913659 -1.2547042391620655
          -1.1094102522485987 -1.015017309759522 -0.8443997707035963 -0.7291198308031777 -0.5177153613077052 -0.15772343685831502
          -0.026252172734528106 0.12318568779278213 0.34417733664353173 0.4994242473786749 0.6217875178421373 0.7089679837907216
          0.7533594383491888 0.7833722713111936 0.8452941668748373 0.9511498912017623 1.0898581672343584 1.1496347966684506
          1.229521105992929 1.3054697382156104 1.3263677372376639 1.3830764033222007 1.4641878419019825 1.4869817207164506
          0.5947987089020679 0.5522465538787441 0.46348972581163156 0.3179250650931218 0.26848599556173325 0.3290176622475107
          0.31497003600988643 0.30131793643740906 0.13943272542569268 0.03447963186385906 -0.06319902305628937 -0.19807546507028503
          -0.31619306571442823 -0.4019772687882017 -0.6197727098508155 -0.9269124324714321 -1.3497560838354292 -1.5879282850246537
          -1.6600053336093026 -1.5219767686856174 -1.517813898018099 -1.628766162933501 -1.5492307294558525 -1.653711672432816
          -1.580241149809881 -1.5494919058301695 -1.4622271125198414 -1.2109185990581632 -1.0639135169935008 -0.9091519148794305
          -0.8180601885430893 -0.5118463773941657 -0.19821156895375694 -0.019900416358151183 0.21790944496565773 0.3522565587577842
          0.4732002525968108 0.5591887095111213 0.657936861936 0.7111319960984012 0.7571927093891279 0.8393598027419312
          0.9357050074283056 1.0666253607967462 1.146855287692252 1.2338072313812696 1.2955040319408173 1.3199720488412727
          1.3740138051354958 1.4430186224869175 1.4743369249050717 0.6472626028180815 0.5717342969610816 0.46135540692190574
          0.34783337468422065 0.29529846386911734 0.3499844092662252 0.32718985309367177 0.2968990882467656 0.1697239946722102
          0.05697812069089712 0.009151571714395979 -0.1375569326748023 -0.28223969853122194 -0.4027144507532293 -0.5906339586743365
          -1.1174088519964094 -1.4787193932704796 -1.5424330394911145 -1.6237962111644029 -1.6575947509756348 -1.6306482057535483
          -1.5500696127343971 -1.6686922895664178 -1.5570409093790831 -1.6266659902638856 -1.5605074416785054 -1.5145165713854083
          -1.3675714480806123 -1.2044848300121562 -0.9647495297549997 -0.7849846008976851 -0.397486255093058 -0.15080370276765512
          0.08000074145506707 0.2514897115027367 0.37063322557976813 0.46703202467633137 0.5124488992758572 0.5946755899581214