<VTKFile type="PolyData" version="1.0" byte_order="LittleEndian" header_type="UInt64">
  <PolyData>
    <Piece NumberOfPoints="2601" NumberOfVerts="0" NumberOfLines="0" NumberOfStrips="0" NumberOfPolys="2500">
      <PointData>
        <DataArray type="Float32" Name="zvalue" NumberOfComponents="1" format="ascii" RangeMin="-0.43115801885962857" RangeMax="1.3917524799859904">
          1.1950831243247626 1.2083928909861092 1.2330726728196175 1.2966568738606987 1.315075492467529 1.3643372964833356
          1.3917524799859904 1.3537664473360345 1.3070796025743405 1.281966062354669 1.2412318994982388 1.187371800661763
          1.1866673769589036 1.15012283666335 1.1064879804309704 1.0325847070917966 0.9336472994989202 0.9157482683306407
          0.9421249989730682 0.931661890481769 0.9084983420628832 0.8524630582850057 0.8760556509692263 0.8255710243390975
          0.7386106465931987 0.09174342431117427 0.5226539906692755 0.3740554747896401 0.3925502058572275 0.48257808097951177
          0.5180432284114959 0.5201489769104682 0.4966977299004976 0.46132947882043945 0.4886820147384004 0.43518472888147686
          0.471976160889405 0.46903629968926025 0.5001154166105658 0.4978188375198791 0.4807135033224715 0.5329867372041208
          0.5519236971163377 0.5103230637269912 0.5272386660601394 0.5049428613794482 0.5038870490240944 0.5285044366502795
          0.5362986514173335 0.5606497718403746 0.6036908125504126 1.183067683329798 1.2327173187255391 1.2689854618695784
          1.304165328666597 1.3419653229421673 1.3288025376527535 1.3566037507325768 1.294227722535665 1.2829834017863955
          1.2295851778721456 1.226781140854846 1.1775416148981954 1.1386802453111362 1.1003637980081091 1.072885719178919
          0.8751631970085134 0.8542995616261241 0.8687558134514409 0.8576605642747063 0.933009850153689 0.8751880395579271
          0.8462279877622221 0.8186661349964023 0.7180367540192876 0.19621785738596706 0.5719713634749198 0.40508323169007243
          0.48355181070419545 0.5361692304535172 0.4843457709584598 0.5012098811065254 0.4975400374674036 0.47011456223753195
          0.5259221861061953 0.45632451054191026 0.4417504450954003 0.4794912732306395 0.46173245329897383 0.4716268357263563
          0.5012332790314685 0.4571950152988975 0.4705604795812313 0.4967601151506484 0.4955176982999812 0.4646845455720623
          0.46300763145181684 0.4599860097863576 0.5086284112847134 0.5154146350514354 0.574720671181284 0.5657415651081935
          1.2231072016213957 1.2885304055130735 1.3006100556528433 1.3124658296793656 1.352599653163929 1.326263183719192
          1.3275365112616282 1.2550355378212574 1.2368724213370148 1.2009728943583649 1.2039283191979986 1.149098312135156
          1.0874463441936946 1.0643472717043898 0.8816877600181011 0.8121938201339812 0.7780879095523898 0.7799237711354896
          0.8399197258310783 0.8828861577778169 0.8550874426295895 0.7599298521321416 0.6873254182691763 0.1482494514094511
          0.5018122754631937 0.42038747603147897 0.45979709956535547 0.506996724853357 0.42657215276287563 0.39933927565248345
          0.4421989234155428 0.48673955622058596 0.4549657493976682 0.44440933364314994 0.4464550725294749 0.4835892231305483
          0.48534177463510253 0.43415824144270676 0.4851057832609596 0.5239719536774815 0.4887411727914999 0.4860985378774882
          0.4454862907311406 0.4621162664016388 0.47433998828654195 0.4730153824095075 0.46192204984560353 0.5399999935964305
          0.5946736825475532 0.5823681481601496 0.6569557528114623 1.2800019895034427 1.3225629203129372 1.3416859647831338
          1.3036891044458532 1.3154536231713718 1.310557276339599 1.2370000377204575 1.242827262403378 1.2151043749210424
          1.2056218297924 1.1555795952892143 1.1253181963927559 1.0548993405871123 0.9099855527738389 0.8718992882515862
          0.7783545106188907 0.7653156640614271 0.7741660914673184 0.8109036613322297 0.781670402544189 0.7419135593549258
          0.6795723388951591 0.04984130993431591 0.4422487929951119 0.4013270529981042 0.4231902901985939 0.3434945454858719
          0.38629704315236096 0.3862404959495035 0.41810756909523744 0.4013262549737443 0.3923485182392304 0.4435420052861738
          0.3678027326263522 0.3804288470920854 0.43147416491408286 0.44426959641861996 0.4570867908260205 0.5081657344907107
          0.5295734079539599 0.5172616579638956 0.48303700884573286 0.48323775574546673 0.475064201275722 0.49273206231835626
          0.49028331180721946 0.5071188491327611 0.5615206943810923 0.5367223599794441 0.6456353617233846 0.6726980640459409
          1.2809160301373228 1.3424295840090157 1.2700148810319112 1.343470693327189 1.2947185322321408 1.2200258561332773
          1.2070623708354258 1.2081545935267395 1.2178452986722206 1.1700799721551705 1.1524494522126805 1.0710899778000451
          0.9221605404931335 0.8844293484369034 0.8263145579977474 0.7831104913162069 0.7684344434176182 0.7841755940136329
          0.7746346217029416 0.700165605022789 0.6546596094276297 0.036188431431936174 0.4301992783255419 0.37506203474332156
          0.3968101059638535 0.35762887360688755 0.28443832995921 0.3195433430752097 0.35262008655617755 0.36234862506499593
          0.3296379644251317 0.3810073237542854 0.37960540110289936 0.3953688471257997 0.41808253543182544 0.4085576805121475
          0.35792619927102576 0.44259199064609767 0.5014963235784273 0.48136601117934597 0.5125352297099817 0.46888840075224975
          0.4871770977662678 0.48684073594771604 0.49621469283271574 0.5055510651373579 0.5270042654231458 0.5939789458463569
          0.6282168641340734 0.6890815674483785 0.7012609849725321 1.3150300482863657 1.3572892407218404 1.2842238358584777
          1.2811541596946212 1.2124812406124539 1.1876359679924262 1.1722903860255984 1.1824646577538926 1.2029826912559591
          1.1304107988338141 1.103564706512206 0.9511865464410241 0.9267361709385162 0.8309013034740103 0.7910611397723492
          0.7756946261067869 0.7442901502719276 0.7873280927769418 0.6850464207917414 0.5609093458303628 0.06261366749219167
          0.3498140292129418 0.37958860067135947 0.3538301391777009 0.28011157562381905 0.24130756500981218 0.19437687224145545
          0.2209536934717753 0.22488371268534693 0.31627757711477583 0.2863671165937184 0.2773272766907878 0.28843469715015535
          0.300793296629588 0.35959806137835554 0.36738053798601045 0.40296692391804506 0.4545731283324975 0.44855974100670926
          0.45474630910991254 0.4490566099474052 0.4403209149799937 0.44950806028317963 0.5214762586729839 0.4766513185715452
          0.5122432185858893 0.5517230259044458 0.6133953826942323 0.6535234798002183 0.6913671615586011 0.7422580230618043
          1.3236890642970116 1.317371190578362 1.2878330047002273 1.2004005286300976 1.1705697487754154 1.1572277193868374
          1.1671597883341474 1.1439298089053058 1.1388947700015137 1.0655233154598778 0.9953158121429649 0.9369586031266571
          0.8697452246540076 0.7918935206985375 0.7957576414255941 0.7436859209817439 0.7138179337109865 0.6301320295512213
          0.5411628535873461 0.10348510046219629 0.31919331809132073 0.3144680057442615 0.36496130871377197 0.2294256384292712
          0.18461045570169796 0.1574475205142216 0.1275980132336336 0.15616235200030626 0.16811369530518616 0.22063757201988943
          0.18025284597928223 0.24617677157648657 0.2611281624503 0.2929040088892198 0.30162886754294316 0.3582690101307512
          0.40461063243000606 0.4262893403278463 0.38861871056970587 0.41406220097726826 0.3945646872188241 0.4314442755244902
          0.48886108690856817 0.5238945824785695 0.5368656468956814 0.5901790069959518 0.5932747685620631 0.6387196478859318
          0.7096895876301315 0.7722926358238411 0.808010724609113 1.2478196200930565 1.2313428683613785 1.23306315481148
          1.1504493974814796 1.1208739250329187 1.1494520223802298 1.1112154017910145 1.0937768046875354 1.0365831793909148
          1.0186577138367159 0.9501456783073349 0.8837298772054625 0.8090817078669018 0.7900550700584948 0.7925386145919996
          0.7396498857724502 0.6435484589575314 0.5342954228431029 0.05664418562562831 0.27595383528385964 0.3654170353210458
          0.3459195605620451 0.29887607074728784 0.21843293840818237 0.128360869839864 0.13112045503934958 0.05836599375427295
          0.11875804185243327 0.1265506946019534 0.09428179619298616 0.15056260386425402 0.2135199081206489 0.1800838012336117
          0.20827495357377596 0.3190860599817337 0.36259486274859 0.4012464493215337 0.4351968406844035 0.3879376254629473
          0.38657519587470746 0.43021207090412217 0.4506588497398574 0.46007548508138907 0.5248629146238715 0.5879539677668371
          0.5768569475246856 0.6091840032886332 0.6343094530522512 0.7466898638743387 0.7840611996785595 0.8207110493570898
          1.1921777607507886 1.2012400918944437 1.172157856061395 1.1500581457976122 1.109976415946706 1.0860410553484428
          1.030081689091403 1.053173861510277 0.9943587115611074 0.9504612045254108 0.9226052867336856 0.8383070649155357
          0.8075424796795722 0.8401191960437969 0.792328019644738 0.7018583033888606 0.582943096589229 0.09209106738491381
          0.34880350247561365 0.3372915158756504 0.2494735421810295 0.22989028354058305 0.20490241749386692 0.14119459911054716
          0.1415954201605147 0.09697436479918062 0.10224163857292883 0.12990766140084284 0.09590973113602243 0.12066710717738886
          0.11330652916359979 0.15502918645336727 0.216224201883133 0.2590947366151714 0.2916764883528653 0.2593047500085056
          0.31772206467335895 0.4255492447444199 0.42632475463079034 0.43265895426598366 0.43724617320786924 0.48268689219152644
          0.47741594181679714 0.5905040803617819 0.5908640413630922 0.5954077668109012 0.648953861215573 0.7289593629659488
          0.7407126562988352 0.7882452103498957 0.9168370761312213 1.195693808176965 1.1542360295613798 1.1359323241307353
          1.0562117510575442 1.0778906543907376 1.0387562554348146 1.0578075859680733 1.006496708359776 1.0156323136370975
          0.9427072545546693 0.89071734564083 0.8468494034894997 0.8233259021544742 0.8554741575272778 0.7565056010958782
          0.6468330510965647 0.1490378034199584 0.30423227098683947 0.30384121577770284 0.16104942789611199 0.20775686396177145
          0.149289497186315 0.09137651186017814 0.09279490010576529 0.13541084628127376 0.1292591258029614 0.0996104445871902
          0.14320753344217646 0.14528611473077 0.09736161673859772 0.16265938155561482 0.2034558900959449 0.21099151851723585
          0.27348008741901325 0.3138724481058839 0.34250469358986807 0.3700160260487129 0.39043049466456253 0.41125616819658734
          0.4131249184139621 0.48894684593002563 0.5290149743682948 0.5473944472645624 0.6050822709776501 0.6469113978108806
          0.701942499783044 0.7668099363503252 0.762170438827849 0.795619817060548 0.9086097313761539 0.9602667499143493
          1.2044150254480814 1.1532985590989056 1.0707401178254379 1.0608518379547258 1.0489225577172976 1.054627981665813
          0.991884134620514 0.9790748675440181 0.9556042405687396 0.9059354627441946 0.8486595019239853 0.8752664385967334
          0.8590624011649585 0.7794122216793304 0.7203254656261794 0.21255490929326754 0.35293138521374556 0.2783018150435009
          0.2175103631285643 0.11193124062836979 0.156962324251885 0.11464336336875243 0.07847998862195354 0.09542504761305998
          0.09582004881414159 0.10515195156289317 0.09707487000507246 0.163995019068622 0.13324880582277215 0.14437831172152574
          0.21739805069632226 0.23042647938586036 0.23577532088483868 0.2562454046033843 0.32807717036843015 0.33194735461191854
          0.3433478341570259 0.3964861922313704 0.42343971382638423 0.4274036279773071 0.5165579921446317 0.5670168963835346
          0.61641203363131 0.6168938338190506 0.7191556604936127 0.6750764782327229 0.7795918787107146 0.861712653633819
          0.9361338614593087 0.943491606739878 1.0167027253974634 1.157382550835803 1.1347807108667862 1.0531166407844554
          1.0720703550741832 1.0319197396146902 0.991860259848256 0.954648823114847 0.9367535326227462 0.8785222657015251
          0.8352465399623181 0.8895535735200605 0.8679279866097832 0.80369479195968 0.7526563239660271 0.24628971864921703
          0.38758250756565626 0.3992716261964577 0.2836449104215171 0.22172326599518688 0.0849788239037142 0.18290126245296012
          0.18800538524205296 0.08880642078767498 0.05866147047336336 0.07407412806371375 0.09580195973826724 0.1332036266176737
          0.16499719503713914 0.11773585945408577 0.139851770314704 0.2237202435157999 0.22332690700108704 0.2535619574904821
          0.2491393639785514 0.29967587694165765 0.36171765469882183 0.4056268858692151 0.42948721022773484 0.4847811307473136
          0.48347779024748017 0.5708125480410476 0.6498763158884839 0.6549180658356203 0.6609107465673072 0.7299103778537814
          0.764576180632715 0.8272400968903275 0.8709520239664817 0.9179169875386436 0.9923059166901977 1.0982625787331795
          1.152721651416529 1.1342491564695671 1.0815690353428695 1.0074199799939172 0.9902328681125087 0.974205800220543
          0.9505795357522362 0.9033385611373593 0.866569903676912 0.8830087187009789 0.8400884238233619 0.8105829548986366
          0.7999644521878402 0.2545547463489872 0.3872206267759842 0.38181732912767546 0.32913724164248676 0.31620458975931615
          0.15891634239104568 0.201929048273775 0.22252564652213505 0.12207887192397332 0.12318769025532625 0.11914160690757751
          0.11870839202293107 0.12529385090349787 0.07917402468452259 0.08841131240427404 0.07558777454120962 0.09813977752671864
          0.17881226263040403 0.18882411748552125 0.2448345023015896 0.22979602655069672 0.25595990438947913 0.33919268649448325
          0.41630393469120586 0.4624786880679607 0.5203610438337454 0.5108396045337379 0.5427312550541291 0.6440724555192592
          0.6991252531488764 0.666980866110521 0.7289744299070456 0.7806732939452763 0.8715527835793154 0.906312834112703
          0.9899533016152122 1.0127388990403636 1.0935962292657746 1.141718461406322 1.043804307381702 1.0141067478571124
          0.9888366481340484 0.991357430856361 0.9520639370055609 0.9201308908254275 0.884900048944005 0.9034905181923663
          0.8415003974711315 0.7766038275008359 0.8163822542325767 0.2711721027822103 0.38556143677440763 0.39020998084840586
          0.3659310091644186 0.38480476272754743 0.23954218822096657 0.19429795598385272 0.2194113335578314 0.1694497202470778
          0.10183441596036039 0.03468616622601204 0.08306242472348088 0.06297981153566794 0.013407992219341323 0.006514183206173055
          0.03068713065070638 0.041131963107108836 0.027979138590464102 -0.000753949118619118 0.05557112218277952 0.1129343483860772
          0.1517384303344087 0.20012763858465668 0.2671467110274869 0.32504360343629546 0.3729049693787172 0.42010619817493383
          0.5069804261289573 0.5879697933382633 0.6485177435179991 0.6690804217200463 0.7154256205418071 0.773583392191024
          0.8397917681069004 0.9501210625230787 0.9860149541043858 0.9850446323456151 1.0860041151550381 1.104455860054039
          1.0285830537952887 1.057253946955011 1.0200378709339437 1.0008935385122206 0.956705667238713 0.9462075700894937
          0.8841134552473736 0.8830692541136518 0.8632689306400753 0.8150184513766382 0.8536983951176744 0.3067860225270087
          0.2458387860705169 0.3976972045066988 0.36558957474143766 0.34950528843821654 0.26309112188920897 0.24680434231016968
          0.2798880463072619 0.19000265686810835 0.16453981770273884 0.07287454857678531 0.010117707932592482 -0.04454986362323528
          -0.05039991251233722 -0.03386775435789693 0.0019449500283019083 -0.014130563460705785 -0.06247945980221284 -0.07223371291187988
          -0.053374506262128106 0.012230082973209341 0.11918393399228958 0.15386223349341413 0.19730219071021837 0.24493341777007865
          0.2773818390931977 0.3436101236338101 0.3907620210664412 0.4780882678664525 0.5112000949255672 0.6470954728281679
          0.7219196632318169 0.7906475008569593 0.8426058345793184 0.9253747135066115 0.9347640825487348 1.0045814262965582
          1.0506181947462467 1.08628704706278 1.1321481601893575 1.0802545389313176 1.0496069500403473 1.0123528525218062
          0.9837842295362377 0.9440659252692232 0.8618281694307629 0.855764576851247 0.8669380773833794 0.8313221942901708
          0.9441455986665841 0.2794237998251624 0.2400910504907466 0.4479000893956349 0.3809979580466707 0.3307582154483295
          0.2869494836270004 0.3109205135281466 0.36184368138685835 0.25630435845594013 0.15645793107249512 0.10682588501818577
          0.05502056273122692 0.006703957705551263 -0.048813593241612455 -0.0816064565137848 -0.09920181590247058 -0.09937882359623741
          -0.10350157298967881 -0.10682811798501111 -0.09612010209563027 -0.06599300347387836 0.006859717597428871 0.06905417656118724
          0.12396729197060975 0.17078114877533937 0.23807344812763584 0.2787225602780234 0.3480460098826221 0.43452259954108474
          0.5413107090591764 0.6092361215092605 0.709349670588546 0.7571034779807848 0.791949247319474 0.8924623239983644
          0.9214180978851794 0.9794823900733813 1.0555409924591914 1.0757131687682953 1.1005905875780841 1.1378663890350513
          1.186579316388545 1.0670097194978445 1.020858368894683 0.91933493315709 0.8398836975567435 0.8593413819798852
          0.8741556595214629 0.9098438900754423 0.9527733137612062 0.2082924734973415 0.2790026281019077 0.36455563001101743
          0.4069074376339793 0.35984431174360954 0.3023470961417177 0.3264541634759964 0.3350335040499003 0.2914961447264332
          0.17236167703242078 0.1085030104174169 0.040992035451880834 -0.007313789571877839 -0.023322097578739976 -0.05487539135744119
          -0.05755557603698299 -0.06626211260190225 -0.10144262547220086 -0.10892610984392616 -0.10575516302379137 -0.07778179001732964
          -0.08847814555601775 -0.002678604956000283 0.015217843710838598 0.09992127649465772 0.16360894881440313 0.23387749535044156
          0.28100735371114755 0.37379375081520705 0.4686449128004777 0.5457677343744114 0.6338385029083515 0.7087293482049443
          0.7494993603767527 0.844089196671143 0.8881838591196086 0.935184543486817 0.9875018900442707 1.0427674049813997
          1.0677451268792189 1.098852776411212 1.1262334752109304 1.210261122562432 1.1396762888147502 1.0898035688646426
          0.9893172536111318 0.9405231861176777 0.9761672496543381 0.9712892952570595 0.9859722598188742 0.27794454341854374
          0.33325305896889645 0.4436845214625174 0.44327259958700943 0.3642666460238695 0.32160678682021127 0.3019149339939603
          0.34232338389038086 0.2853996934705632 0.23792160664248774 0.14838778931651517 0.038643869580325334 0.020400614969065284
          -0.017586270618756294 -0.04035890909925865 -0.03564446252185396 -0.042296977979156436 -0.09658806957952513 -0.09945914236646908
          -0.10267402419075035 -0.09358507349289194 -0.05071759142935027 -0.032373913409572144 -0.031094716237379222 0.05312020982788193
          0.1467021756961906 0.16012078757404205 0.20493262229221126 0.29024397519052664 0.38341360082651477 0.4601237938973556
          0.5238259599463962 0.6228542448835799 0.6935234415710751 0.7769919638486643 0.8515662803666664 0.8797014122697538
          0.9338241456951762 1.0145247945848113 1.0460264325175248 1.0678234815980212 1.111628343809114 1.14107031902952
          1.196067681471617 1.1496797298588077 1.077268790544331 1.0567682046741456 1.0563171304833112 0.9976760800481249
          0.9714775682101464 0.36485702833346323 0.3481319434260155 0.4002653570304949 0.46474236914319506 0.4127835262018602
          0.34717118860878476 0.27063613122804125 0.3289087931037985 0.28002553941953306 0.2434016506980243 0.17379133766877267
          0.08848758599070367 0.06682230079653993 0.020792116978424754 -0.04452711705997671 -0.05180970431473236 -0.10771288215521968
          -0.0899278914905794 -0.1253444202874254 -0.09683415211167407 -0.09172645675401335 -0.10431399527932235 -0.09513932814930831
          -0.08246898083007932 -0.0455847873308502 0.004865686773024121 0.051142392055978224 0.07161499306939721 0.16021808803676932
          0.2713113447271116 0.3799482802800491 0.43237538266227715 0.4762920730519602 0.5699763816580891 0.6554775471473464
          0.7871577418534113 0.8251821792439094 0.9047766393098661 0.9588480423720943 1.0140667929815557 1.0317981632704458
          1.0863173794358345 1.1060458528909378 1.1129574974334613 1.152593956673289 1.0941681125669611 1.0896094439125612
          1.0759860203677276 0.9679430325891146 0.9473675567452196 0.373742890825267 0.4026871576389127 0.4921374348191436
          0.45204804909600715 0.5273317495993479 0.4767292503362633 0.32024752591383654 0.3558763830817354 0.3241983284838712
          0.20992618774208796 0.1775402031478714 0.1084816198413039 0.1034461884121528 0.04328138914567989 -0.017641050031206015
          -0.050483726810968965 -0.04337575770108347 -0.09381621156824599 -0.18871111684097272 -0.17218951556108245 -0.17743577893361528
          -0.21011143662097323 -0.2119265338171293 -0.186324671951323 -0.15786057897770767 -0.1116725790757522 -0.07466457581854902
          -0.11106454584697312 -0.058431275058816755 0.06511522718925158 0.189188835815016 0.2852529890760787 0.36412568427792075
          0.4950382326003873 0.5966640912671068 0.6143390237316628 0.755034275779969 0.8046860661827288 0.875487393433689
          0.9241365928816997 0.9802390584630152 1.0171289140714457 1.0657928018953555 1.0796381935859893 1.0814879505947845
          1.1158837115497595 1.0859750610159153 0.9872421689413489 0.9550914650506116 0.9584349475777127 0.3764116767134759
          0.39948087689637396 0.47683115194242515 0.5228150677325024 0.426197646481051 0.4863425045635227 0.4669690273783117
          0.41989416950332026 0.3919414765182454 0.19767958083705456 0.15664161712569902 0.10800534712453932 0.0907223602333074
          0.07148675826940531 0.052412937843466186 -0.0707795619170284 -0.11428627789930136 -0.16194541681243396 -0.16412934055346057
          -0.1704107185855199 -0.17111216790353823 -0.2476277675493402 -0.24590460192695188 -0.26670974673941356 -0.206741289587163
          -0.15774904925079505 -0.20905138838926077 -0.19840314857087057 -0.13214145229664037 -0.13226662608939 -0.020463668604197155
          0.10700595645014907 0.24160242794623854 0.3013965160753064 0.3964548375854878 0.5151372800157814 0.6283485140966276
          0.7072578442914313 0.7422341885641962 0.8271767111409197 0.8919835425687237 0.9185258762723489 0.953532172242893
          0.9984845560557412 1.0411030911661339 1.0527433781908218 1.0057157915887063 0.9918001282665422 0.9863082501469366
          0.949682578782292 0.35215706419594334 0.4254010040676905 0.4641021537176521 0.5314494200864303 0.4676452002698378
          0.43200784210073556 0.45995063887478355 0.5323645478000274 0.3567274375636646 0.21638388635847233 0.16121228507003058
          0.10866160726577012 0.06266651784024031 0.0654572324178555 -0.005456129901484884 -0.08666096741384073 -0.14054180421250165
          -0.11758646842770501 -0.15430021720611992 -0.12214470564354134 -0.17997817524109883 -0.25393017830940756 -0.28577498579722954
          -0.2849178884167357 -0.31891443509905215 -0.26656500553270274 -0.22248500276969213 -0.19818046616649848 -0.19648856674559353
          -0.17112878919043772 -0.07121879184704302 -0.021455863627693694 0.08000002616905673 0.13812667169587042 0.24386517304461972
          0.32648641551098 0.4494443295247137 0.5437274139906193 0.6846531782193506 0.761892253581076 0.8387412371461077
          0.8866146267247564 0.9028386691598558 0.9274177141931167 0.9811589077226803 1.0149134601478658 1.0317489678028322
          0.9748459532154818 0.9859342781619819 0.9664644374681008 0.3214380715096279 0.462904236315612 0.46161262236307626
          0.5414252455960163 0.4399938276554404 0.39527788653915186 0.4653943755820122 0.5221569549432867 0.4692607540141503
          0.42664591676764346 0.19662552603650113 0.1374451076601876 0.12413324759083551 0.010945613016643542 -0.041494310030540646
          -0.09487131413722408 -0.08160600380462736 -0.1990771667090504 -0.14340145211761338 -0.11978444216133832 -0.1605650358888706
          -0.24372431354853832 -0.2745690481309685 -0.35277798292428203 -0.38271379746490575 -0.3346964133586558 -0.2627782161767697
          -0.20459001615597946 -0.1832221640164059 -0.1642483276355373 -0.14158429486731058 -0.06468599549201078 -0.020370592417548197
          0.06774028010898887 0.11890972851258524 0.2197904245714227 0.2984426709716993 0.4121116023836292 0.508493208189386
          0.6243505934480487 0.6695704635047545 0.7597186333212038 0.8074928254194109 0.8696812793872974 0.9247405726831873
          0.9617817776522343 0.9805880694970237 1.0055634251673855 1.165567953944805 1.1581066278984478 0.32000690941096055
          0.4919003449084156 0.43357139142201406 0.5335400212351329 0.46748970081858243 0.44280538625081867 0.4915786932151718
          0.48314849085443173 0.45930576591002126 0.46500425606820894 0.4160174951513383 0.19393273996944593 0.08293389405990045
          0.026102892843365574 -0.08029252306625291 -0.1041544346459896 -0.0896943904033798 -0.17175770115720493 -0.17843289579488386
          -0.15306585595921743 -0.16212863031268906 -0.24682333544247684 -0.3256939281989562 -0.3658160634164511 -0.3886875416152672
          -0.38696896311377516 -0.3335187672115566 -0.26460419370324834 -0.18637458286537878 -0.16968673610868015 -0.13261998644350828
          -0.06932317833905595 -0.04697205950856975 -0.0031602436314472297 0.032214110837231726 0.11987572783680396 0.24242148270855074
          0.4313204495987408 0.46101039540389327 0.4945896514205176 0.5907932612484084 0.6517845897284922 0.7697066662720722
          0.8249986185676738 0.8796937952864173 0.9353105911600105 0.9351724712724024 0.9613801946990956 0.9701087581189513
          1.1657268501631224 0.31029574270695826 0.4677768554928836 0.4306452163065641 0.5127094388249603 0.518553739538347
          0.398596880328658 0.4941869053046439 0.48833913623876113 0.4648892349701725 0.4219229288329381 0.3769967331492576
          0.22622810269759197 0.15911167671194856 0.010293054297866764 -0.07469052319883038 -0.09366813565732461 -0.13717748434380503
          -0.13335813863448975 -0.12260944979664702 -0.15542803605569797 -0.1872268279914357 -0.3022581599562673 -0.3598574924311686
          -0.3722466640192902 -0.3656056395030841 -0.38277838505164324 -0.37463401128868107 -0.33404914404677705 -0.24252746676289225
          -0.17036831226605598 -0.15051148039392756 -0.12092207082640956 -0.04902515746022244 -0.03046110746137585 -0.008802442041885577
          0.06230429136786813 0.17099206375595122 0.3261141207340013 0.4701792240127416 0.5040707643127831 0.5469909661704749
          0.6052654875786566 0.7062975012322412 0.7764494082203344 0.8300316491883813 0.8749098671431226 0.9244387702717
          0.9266928512043953 0.9410351113577343 0.915864482137613 0.3006843995991412 0.4811446999340736 0.44773341339432005
          0.4316397793051766 0.43703274291005245 0.38485092569908735 0.5069687942777376 0.5153619470738556 0.5017761882256709
          0.4685606778289671 0.4781974208964705 0.38116359596705146 0.2821545385123633 0.17898052570669112 -0.047248095340398026
          -0.10576476983101869 -0.1466622925302697 -0.14703161752973587 -0.12389466610582088 -0.12900545738080482 -0.24258201048017375
          -0.31869520676648844 -0.3585487611212131 -0.36964294239062334 -0.37329360348902874 -0.37898310868970203 -0.374694784586345
          -0.35384030264073707 -0.3486877686979551 -0.2460668897808184 -0.1599559212995751 -0.13460085609451405 -0.08635765623285291
          -0.05116264954061257 0.004407489510217457 0.0443209586204776 0.1437903063511651 0.20962367035440632 0.4257196593144119
          0.4869123834658693 0.5106499033720119 0.5303614110489037 0.6164886172857519 0.7045122468073471 0.7738829765562543
          0.8357398266875264 0.8500723744946225 0.8743620417991239 0.8986631883103645 0.9168649078239036 0.881713428237374
          0.5102332499753892 0.5353491518883348 0.4621734877518142 0.4782196638914669 0.47814761252861304 0.5229561213757477
          0.5384597917442705 0.5467294096682571 0.5306924256745812 0.46180960329956466 0.49798179120850444 0.48172203973338523
          0.20853346228887068 0.047840171341402275 -0.06414246869697399 -0.11846913118271864 -0.16322173986525657 -0.1527508198062136
          -0.19545133305531912 -0.21219938861112383 -0.3044718308134942 -0.39172554852439034 -0.39515315812171015 -0.4110876915252583
          -0.39746026737368195 -0.3979786415400185 -0.3685559559243101 -0.356297172945 -0.34336089546294013 -0.2931173746388383
          -0.19135296298762208 -0.14567062241519832 -0.03540365988294605 0.008258278716763672 0.10757445226978637 0.16490015632302327
          0.2392933564669345 0.3450926000371817 0.49715080493761077 0.4961551768549517 0.5301922146525347 0.6007107336567454
          0.6329815231618803 0.6972265826953411 0.7492330683249683 0.7921306613176856 0.8357361054601341 0.844923569312806
          0.8667569135769754 0.8776916836625076 0.823445414935127 0.5221511559136652 0.48928220786507803 0.49276010205464094
          0.49286773820766916 0.5685841184149345 0.5507446319814467 0.5782692401279288 0.5858811709653207 0.5036201660315123
          0.5229827610375717 0.4548343633242532 0.34056436249393446 0.14344696274302943 -0.030351612756349275 -0.1313792508717177
          -0.16034957149414394 -0.22105020848844115 -0.2238908405770999 -0.2758377953734393 -0.32059163731362655 -0.3826799758597468