<VTKFile type="PolyData" version="1.0" byte_order="LittleEndian" header_type="UInt64">
  <PolyData>
    <Piece NumberOfPoints="2601" NumberOfVerts="0" NumberOfLines="0" NumberOfStrips="0" NumberOfPolys="2500">
      <PointData>
        <DataArray type="Float32" Name="zvalue" NumberOfComponents="1" format="ascii" RangeMin="-2.3024572260051244" RangeMax="1.746693545463859">
          1.6767731506332793 1.6664195757302753 1.6493315464735852 1.646792433705564 1.6507093786807094 1.6486154158713657
          1.6444827102723796 1.6355805654391034 1.634552583370526 1.634824763578527 1.641698847615973 1.6402009891511504
          1.634098629925032 1.6252008733276413 1.6152437037762806 1.6070694443909388 1.603531584538616 1.6018192614691003
          1.6008123331350301 1.5969407517601353 1.599144678023888 1.6007376841238716 1.5891889216470603 1.572562846975925
          1.5514372380618493 1.4770081641019481 1.5947574103601374 1.6099809969011425 1.6572631467483223 1.6739608349144754
          1.6736185211228138 1.6645991904945958 1.6527132122770596 1.6422600243023266 1.6322389920027516 1.6256643253313763
          1.6275697471923316 1.6197421354662298 1.6169441927008752 1.6170875836192058 1.6087694685552416 1.6107331357396146
          1.632164135505093 1.6618084014406769 1.664883074497421 1.6846977064250463 1.7057830040865265 1.7254835150125778
          1.746693545463859 1.7328181323284424 1.7261086591263584 1.6581733251163226 1.6496387607138245 1.6196172499762918
          1.6169651110728733 1.614128717573239 1.6175325797370672 1.6122864059429372 1.6063514701551083 1.596330456954901
          1.5978414102224834 1.6078339007121711 1.6120473056027607 1.6103288385311565 1.6074248937132523 1.6000940863099353
          1.5900354263231988 1.5807583284786617 1.5760654639647829 1.575575579023502 1.5735807196483917 1.5731072192813744
          1.5697523894301937 1.554068973189169 1.5327701800243672 1.4522487191464304 1.5564643589349128 1.5707595448606453
          1.6106155024940874 1.6254330954488236 1.6348409414154264 1.6328177986906516 1.6271522449413611 1.61658756653134
          1.6013938466553734 1.5963729713522148 1.5914528009272808 1.5822349637416804 1.571901446034195 1.5697492141214577
          1.5659522778806996 1.5721381634110003 1.5895179976814025 1.6139967684987833 1.6262446044579713 1.636807108858206
          1.653100734922171 1.6731914482842485 1.6881723094327525 1.6863094454638394 1.6754827476608414 1.6582082036498351
          1.6416180469502204 1.6290743809011512 1.5999011572405755 1.5888411432152647 1.5811260975401666 1.5784481443365845
          1.5787045597467675 1.5689805921017255 1.561895573227974 1.5581111083812318 1.5661654120834885 1.5779247820743354
          1.5808847275512021 1.579194782236772 1.574130959961542 1.5640054766291818 1.554122998785542 1.5482304460550231
          1.5462437224671286 1.5460565787558993 1.5424065814225032 1.5309847934322254 1.5138649245849725 1.4369144496003277
          1.5241224149647388 1.538806465208257 1.5706176821261744 1.5811994781666272 1.5844678856698853 1.5859957817605237
          1.5869210760568349 1.58406055427429 1.5750731163439236 1.559542048970493 1.553805556601129 1.543630703551683
          1.5318025465495073 1.520306251399373 1.522354802691518 1.5359233956018756 1.5554208521151478 1.5726714879055106
          1.5813691747648198 1.591509893005225 1.6116364026433996 1.62728930831358 1.6206862482792126 1.6397057376995399
          1.6347006318115023 1.6171251552654768 1.6060067397189806 1.607389249346669 1.6093096540872798 1.5814726461291433
          1.565126800864284 1.5529886551140073 1.54234957344799 1.5405779538776627 1.5351609848038412 1.5257605170562156
          1.5178896563496935 1.5242401863049015 1.5379768037420816 1.5455530879093449 1.544430348207547 1.5391440508308354
          1.5294199093885685 1.520912432282335 1.5158280532328272 1.512864634766091 1.508968910429308 1.5022304595916751
          1.4883693200470844 1.4203326714668516 1.492449100749942 1.511564169662135 1.538065300992456 1.5356577216372074
          1.5392273296663697 1.5373624333497211 1.536225426734273 1.53906956462092 1.5294348895403327 1.5197642756240508
          1.5028276418875701 1.4874058957600191 1.484237698836525 1.4758067005490623 1.4769804015231218 1.4870713987316933
          1.5071144925713227 1.5227166045653124 1.531401022699787 1.5392698871797863 1.5544533381002283 1.572071737716139
          1.5638850106065776 1.5742774617881325 1.5835409048262663 1.5816929897450667 1.5579956530622718 1.5608514142375183
          1.5847332219624113 1.583472687513835 1.5588356625968478 1.5464776536485674 1.5296075066832633 1.5083083847496515
          1.5032827976169711 1.4966944348879483 1.4851393870964744 1.4786878351312913 1.4819457897254116 1.4920781089262924
          1.5020431763404358 1.5027024403872633 1.4982624157746003 1.4894041874206452 1.481337303015422 1.4755597800147824
          1.4698991316494614 1.4631456309666482 1.455201881471048 1.398812314638707 1.460436278394165 1.4808555611472474
          1.509938339634575 1.5013712585927241 1.4900409929608136 1.4902651328442935 1.4849331055349342 1.4833030654322399
          1.4863847042734775 1.4753907705530995 1.4593245485810888 1.4369754166404993 1.429017912623009 1.421170314792362
          1.4244153234394057 1.4298041465418057 1.4382281573583213 1.4551719489894883 1.4675457291495453 1.471144615725893
          1.4826106378798636 1.5059142021631007 1.5306406237437642 1.5029695886948444 1.520381731357593 1.5213944256319498
          1.5436121658790778 1.5621182727679064 1.5767387996335904 1.564017751970844 1.5436968048724837 1.5448820164711086
          1.5266821118966363 1.5089392794521248 1.4834526784718611 1.467195835795294 1.4577147926287544 1.4470074126846755
          1.4403990108969607 1.4391739770762384 1.442364785314459 1.4524638619367933 1.4572291947050762 1.4538942543994868
          1.444992523977194 1.4367885374981644 1.428942179568989 1.4210881132953088 1.4108379800747595 1.369046515835523
          1.420115573633511 1.4429886610106157 1.4817160929226632 1.4758714457779174 1.4595006160643427 1.4436016787930723
          1.4382553193043641 1.4343969395461307 1.4265711096694997 1.4215255225585672 1.4149669137965384 1.3913821472810497
          1.3702964675986233 1.3614421434628523 1.354666581397683 1.3655939966410107 1.368664461338575 1.3786794026667528
          1.398724015989732 1.3966535340181978 1.4086944246006299 1.4352320841491766 1.4684441401958026 1.479925358670929
          1.470036291983649 1.4867175981116607 1.5203646341865926 1.534077001843971 1.545794193478342 1.5715569127309503
          1.5429698576032793 1.5179670954647433 1.5140470695102606 1.5061801767207708 1.48670519880575 1.4587651153367611
          1.4366900407433147 1.4189913040567355 1.4030113199692098 1.3932685476584803 1.3928521157097855 1.3974963282272597
          1.4045261710239558 1.408108437045988 1.4068664734179057 1.3984288653235966 1.388231446694023 1.3791378576775803
          1.3678455761817405 1.3401012513375503 1.3733523682665334 1.3899885247326977 1.4346130038433438 1.442876917061665
          1.4335801992766755 1.416713410241729 1.3929152961732418 1.382677000815378 1.376810985249291 1.3633133061644747
          1.3459508922866616 1.331313356132173 1.318929699021314 1.3012999682099717 1.2885025372206724 1.2862610018352303
          1.2932435481902698 1.296939059870553 1.3080542564046866 1.3260752510339364 1.3370985301050435 1.3543111791000195
          1.385544873781442 1.4148574392011557 1.4154466071429515 1.4473208142073524 1.4868119356218223 1.4959726577433297
          1.530959211751216 1.5461421287067998 1.569722918208507 1.5177779286247541 1.495173599744938 1.4840411771869249
          1.4783499737933699 1.4607327745062448 1.4401621667763187 1.4100894775640331 1.381346362753727 1.3563955800944887
          1.3408905850089803 1.3403545923807803 1.3474292108528958 1.3533847305526117 1.3624228786498802 1.3557841430478539
          1.3473891795030142 1.3369989122025434 1.3243519544636932 1.3079221785554511 1.3299364369433062 1.3372087807140551
          1.369488374280872 1.3856488968101346 1.3863567890761628 1.3810221896957726 1.3606173813546363 1.333290155293898
          1.3230564667822382 1.3082816936674142 1.2871644057432656 1.263484018951269 1.2435414930345168 1.2340059701591264
          1.2215287457504411 1.2082553035653592 1.2071030851226074 1.207095455776437 1.2153384763845427 1.237728053090243
          1.2560010575803902 1.2765331021997464 1.2987094273301458 1.3250880404129377 1.3627052311724306 1.4025560590865758
          1.4414894414848614 1.4694264367460872 1.4985002780283698 1.5143578773480613 1.5349746320158197 1.5611141826648602
          1.5142093561905718 1.4747346341661194 1.4537989882437707 1.4443368269299417 1.430358226441521 1.406811759574766
          1.3787268491498914 1.3436689451547985 1.3186659602345343 1.2973917990853727 1.2917932456716992 1.2946572595170918
          1.2978394496435803 1.3049016122778723 1.3031648532311118 1.292550998831832 1.2796522532119785 1.2726885454358312
          1.286743357773152 1.2910466533765208 1.311519812600756 1.326325524753925 1.3217819321712123 1.3231480868077832
          1.3136719788266853 1.2867696949262166 1.2639998480848504 1.2484457386571117 1.2303117821802876 1.2061023597058378
          1.1825799723222974 1.1564874047212566 1.133340267104407 1.1293990827060396 1.1247702835287863 1.1181781959560517
          1.1300770109992426 1.14152456528749 1.1564639282168225 1.1730543611313102 1.199232319796287 1.252696031942074
          1.317691704703124 1.3556507235449486 1.3928094799641972 1.4256232600210954 1.4468495530358914 1.4571115899206046
          1.4772363324125979 1.5136800177506247 1.5019374158802614 1.5128065477492654 1.4690362677360753 1.426511222632922
          1.4102357894195516 1.398995185777177 1.3666824605110814 1.33783981133526 1.304257595959653 1.2735888107865543
          1.25079785948071 1.241754167013045 1.2487887092249805 1.2459842431542991 1.251199110066781 1.252993553982117
          1.2294427361109757 1.2317954083310452 1.2439669003856488 1.2420100687587492 1.255281268934188 1.2681787105081095
          1.2700693804934045 1.25596941597177 1.25133377953061 1.2334099825488027 1.197052350553844 1.1787933722465258
          1.16425590982173 1.146049727680303 1.1249422981127648 1.09800377060668 1.067231735208004 1.0426111674812901
          1.030201346788152 1.0310498587605341 1.0316366333278177 1.0439270350171495 1.051355003318731 1.0688462833488397
          1.1014281287907568 1.1747983487516962 1.2445326612196412 1.2850131341500974 1.3255346764886362 1.3619196833983307
          1.381027822133639 1.387701911258803 1.4128475815625925 1.4430280838192522 1.4478192051996646 1.4521601043527377
          1.503415560956059 1.4657561711340055 1.4126002887557836 1.375053846993994 1.3562154990300075 1.3284682617981616
          1.2861055235277774 1.2577109307223164 1.2313068873771786 1.2088818425488819 1.201374990560255 1.1983386331015615
          1.1946802945328148 1.1907803967681154 1.1820726495669756 1.1938518940827068 1.1970509821295898 1.1913856007772479
          1.193057010319288 1.2014023123162936 1.2118452443336678 1.207171889213211 1.1819253235295313 1.1627341312437287
          1.138752089487577 1.1006970237091618 1.0800852680329658 1.0625104111612613 1.0495366704953317 1.0335341729195582
          1.0033532038388302 0.977289877843389 0.9535589092947123 0.9389411791743434 0.9303459650373687 0.9341463620849787
          0.9489570677835576 0.9704312388243841 1.0077871354642876 1.0687299336147051 1.1206279785507214 1.1655880960695704
          1.2109005418974055 1.2534666278819633 1.2786820314191105 1.3006452508959254 1.3428033652572189 1.3569320073383089
          1.3754803463467977 1.3854335619284293 1.4102878140130668 1.4858275844382156 1.4523915576982003 1.40312450206134
          1.355685263143231 1.329630106146755 1.2984436196430376 1.2426447887294811 1.211926424659314 1.1857901368453336
          1.1698268157818952 1.156386969420779 1.1483774348368945 1.1401747773874673 1.1173538705313608 1.1376335295034503
          1.1660478356531436 1.145021095359341 1.1352096278669956 1.1322518279780986 1.133300581241115 1.1413358858606306
          1.120594315555596 1.092996846163389 1.0629339110744516 1.0307818152830939 0.994586961306195 0.9758086049236369
          0.9536617162470775 0.9349270649049028 0.9150336096295381 0.8923105376871002 0.8715159822176329 0.8494984318356841
          0.8320064775738555 0.8184050202921513 0.823504747410888 0.8500163299669656 0.8809663123438941 0.9289929948831557
          0.9760102236531687 1.0137592945827303 1.048938677256594 1.0916055036644121 1.1418202285010497 1.19544373620694
          1.2303064875307412 1.2731680135870689 1.2976320950462106 1.3254661418949119 1.3400393886754993 1.3740381826572883
          1.476977461910826 1.4384397746696425 1.3868705362513065 1.3411988487067097 1.293930127002738 1.25819986821155
          1.1967717844186725 1.1561471290253469 1.1370924012766053 1.1261679160781697 1.1147383239584823 1.100649676098884
          1.073495481985903 1.0723724313884637 1.1084409069051364 1.1037935385713014 1.0777349406567258 1.0629853844445007
          1.0549588669520336 1.0494370854377195 1.0468366031737564 1.0272950488953558 0.9949658219987847 0.9642773433592466
          0.9121378717124845 0.8735892072825617 0.8589651485158606 0.8403395139468534 0.8168669200277067 0.791341162455692
          0.7559190100661048 0.7205938837198014 0.7104995984369794 0.7069933466107742 0.7035952126142249 0.7017643495699416
          0.7146502188669808 0.7484604990844335 0.7812420536743043 0.8179495100814989 0.845817418662367 0.8939663412544447
          0.9700714343604018 1.0572752336894031 1.113530475590115 1.1720734559608297 1.226513689175005 1.2723526072179474
          1.2897186859848973 1.3186061374568803 1.3439444542787415 1.4624573264822591 1.415760796201125 1.3724319185560059
          1.3237969328211723 1.2706269923719642 1.2167129816342603 1.1529358949959168 1.1114876817815205 1.0867660623458824
          1.0847480612064788 1.064698059620727 1.0313862570907466 1.0212627844098983 1.0511040159378957 1.0550446218591325
          1.035525130108169 0.9981986763097498 0.9743886657662627 0.9571984832152358 0.9543657378797196 0.9518138979132185
          0.9325912884228472 0.8986949275480891 0.864139806964305 0.7903619837244461 0.7327246074395408 0.7235749834139222
          0.7074052860713382 0.6727981951788754 0.6362438504777805 0.6111756573429816 0.5685579236462147 0.5368236246992165
          0.5176540823996779 0.5175394191576081 0.5238359853425605 0.5288201198037812 0.5494836666924571 0.5863319427389956
          0.6315190903149703 0.6964675297474213 0.7833557146400061 0.8939392302174658 0.9642284384270254 1.0464032150502673
          1.1473609595751009 1.2027640834707567 1.2296387190142803 1.260385945242865 1.2884160354044154 1.3098485666502613
          1.4443964432961682 1.4009436549390966 1.3570111239627545 1.3012308555966257 1.2459465218331875 1.1735049301654255
          1.1107675871741636 1.0573120081473664 1.0398481471066245 1.0303272017029257 0.9932598615486251 0.9710007699341535
          1.0006591858747238 1.0102230652454036 0.9878812245448059 0.9475667651278201 0.8998743884909036 0.8578536962905237
          0.843872676807583 0.8430430703473166 0.8411692064397915 0.8183432808332581 0.7844661468565525 0.750511029182717
          0.6554957434519028 0.5810954563091597 0.5518895796728496 0.5341656025918446 0.5039116807868056 0.4638038209563092
          0.40888356919063634 0.36937175014581447 0.35534275862249715 0.3483069018326043 0.3381416967291143 0.34029983081265375
          0.35942764724797566 0.38093101104306654 0.4279844725154564 0.5079402337209724 0.5835690595915787 0.6860705414798483
          0.7958079893837863 0.9213170458997677 1.0441988793358075 1.1263853734299234 1.1624237115942784 1.188551251745324
          1.2276174358440364 1.267962160787508 1.2993037740142475 1.4269268082582303 1.381336359353709 1.3261243106314125
          1.2787424323763472 1.2160023615633972 1.146767588665199 1.066515645844534 1.0052611528862234 0.9871000221312446
          0.9476227766711669 0.9375955949615017 0.9682041018431422 0.9668539204743767 0.939060415277715 0.9129123049708944
          0.8658328484498621 0.8077687102809176 0.7549504548113785 0.7382684564408607 0.72271595466671 0.7135333236582944
          0.6863650552145065 0.6504579077857577 0.613987480380503 0.48345389965545227 0.38764310494107385 0.3254472910245129
          0.30665830110886205 0.3028176443517387 0.2687530906683973 0.21187209459552103 0.192927412751295 0.18377993244258026
          0.16993302055121992 0.16208476801401805 0.16673199165204328 0.20334519799571307 0.23090324570735798 0.26460439202174646
          0.3411099977485495 0.46459196097499295 0.633820350954704 0.7727128345998986 0.9169702228001746 1.031426290903089
          1.083886667765691 1.1239123235814803 1.1648361704320842 1.215382390826234 1.259665721511468 1.294295687128282
          1.3974702761067728 1.3591687954631348 1.2936132175341502 1.2406596480286887 1.173648046049447 1.1025136523088204
          1.0082057440750878 0.982823428834734 0.9256940895309752 0.8834681637894988 0.9438714918239208 0.9446514091039412
          0.8906084462930823 0.8655043023528578 0.8335295650805404 0.7814580517451976 0.7089936805139591 0.6386596655179606
          0.6155287740916834 0.5940842499842856 0.5741324479435713 0.5367914970859364 0.5014925693804398 0.42221674779628293
          0.24318350315449874 0.15081094107768855 0.08586732989675219 0.048609449265049696 0.03499309639851525 0.015775967321075064
          -0.004706976629768007 -0.04522059003732942 -0.05442741938438275 -0.06666769611450396 -0.0697106412208832 -0.03350514837813548
          -0.012608732857642276 0.021762591025864312 0.1296232916264198 0.27042157118258964 0.4255782982762398 0.6158883403215089
          0.7718375517085453 0.9169461109384421 1.0058431963993686 1.060322673179177 1.1021076199161732 1.1541838581535457
          1.2086376102298153 1.2509639749161412 1.2878435281716334 1.3747510226875137 1.3320866239485891 1.2705483659081258
          1.2089960724007764 1.1356175298836957 1.0447412560458018 1.0004895658453599 0.9231096996753755 0.8990139140328222
          0.9373310792248258 0.9197686779616262 0.871085435345836 0.8196332321831882 0.7809290520141283 0.7442932084452134
          0.6946105834646014 0.6001663876864154 0.5217721659254989 0.4851426972776438 0.4570593177569476 0.42043194702351233
          0.3609285891981068 0.31394142557107785 0.16724787084639536 -0.005270182091375642 -0.07360843395753638 -0.13084539634162504
          -0.19770118408568663 -0.3184616838998871 -0.38686531390774104 -0.3611375750345208 -0.38705805209178873 -0.43258908143304187
          -0.3986086286013366 -0.32786566662878247 -0.26561948949570763 -0.17207750906339903 -0.054858012649206936 0.09367996515657823
          0.2611932556589778 0.43035533660476466 0.6219755716653597 0.7939061323156016 0.9115086938811364 0.9883057628883742
          1.0449987085983414 1.0955404315844566 1.146498081866914 1.1999499979946833 1.2375355859332564 1.2758354021679523
          1.3767207824735705 1.308833154390645 1.2462512694160877 1.1627831752932254 1.089656034130489 1.0384024927054565
          0.9691857387076881 0.9520889650807135 0.9526874279486768 0.9292657499517663 0.8722603230733987 0.8135723635719088
          0.7773271310179056 0.6982609051491485 0.6527053069783249 0.5947013067591977 0.5038197047045266 0.40430451259576633
          0.35183294671193766 0.30333409398809963 0.23323826370075856 0.13070693966104932 0.02084582341866179 -0.13324637999130834
          -0.2541152915891583 -0.3287744701963941 -0.4398813179893575 -0.6528011140948182 -0.8591578365983468 -1.0080162152032597
          -1.0677150823241575 -0.9787686435583015 -0.8817983652736383 -0.7369250346815014 -0.5462962319561211 -0.41053722759719846
          -0.2781722850807045 -0.11757815524857941 0.07323041886758885 0.2513729000524711 0.4575470788863339 0.6378630632190146
          0.8036528448983382 0.8934059295907423 0.9720681506090253 1.0389544327625615 1.095239612727433 1.1427488218727717
          1.1863486482700945 1.226021670974592 1.2728558045886669 1.3592479190414304 1.3055193668397154 1.2497686119077016
          1.1579162582704525 1.0998526785055531 1.0354094941097107 1.0045093942895895 0.9974859932983609 0.9637400760489141
          0.9048952926421469 0.8264640747880364 0.7617520188809361 0.705802593671382 0.6306575817940994 0.5584314953675626
          0.49687602531671476 0.40733746723219605 0.29525729295336084 0.22126121136542334 0.13069909439340938 -0.01935066803043853
          -0.20766257601329324 -0.3598204204405362 -0.5424370434204051 -0.630557442205393 -0.7781656617558215 -0.9672473919764819
          -1.1857305609221709 -1.4380971100840814 -1.530487251279171 -1.6011468685979346 -1.487802046763372 -1.2655524609840672
          -0.9929361703283873 -0.728310305684484 -0.5363951030193685 -0.3603861313471453 -0.153400586423661 0.07055810520714645
          0.26808480879833757 0.4808925340250788 0.6583242716966256 0.7867055744192452 0.8781039399116847 0.962851847426542
          1.0350258355999904 1.0926993382194432 1.1414834517388979 1.1831247232588373 1.2224099601387983 1.2710829708740565
          1.3448711127766464 1.2978503241535007 1.2165260327414114 1.1758483887476312 1.083759229792403 1.0677769284885863
          1.0477099243271768 1.0333518001605688 0.9484263724477745 0.8746289328680054 0.7801368850658882 0.727980157737968
          0.6575870395270479 0.5758086162952707 0.4814019585817588 0.3834046638562201 0.27822582201540047 0.17782184761166486
          0.057319317540575544 -0.0869387529927385 -0.34188426805618466 -0.6531774740301789 -0.9000732899855658 -1.039948895858124
          -1.0777203821691939 -1.2299015845223222 -1.5304220527044616 -1.6580945733463661 -1.8232760993694268 -1.9150339919281298
          -1.8426109539600448 -1.6875471022865343 -1.528988449116485 -1.2748792990587992 -0.9589981560032607 -0.6786198456877655
          -0.4344343342515686 -0.17322074868094953 0.05624196401847876 0.29084690561460236 0.5064373185038401 0.665520847750371
          0.7754039286026503 0.8737827704394254 0.9607486924795557 1.0357145546275675 1.0935451894346386 1.1398319549609552
          1.1754509812110434 1.2154085547136868 1.2592426779863635 1.328515562240965 1.2541528271932738 1.1905273530645522
          1.159747979219456 1.1317585990814336 1.1072053315918056 1.0833480913028426 1.003286241186726 0.9490670862640044
          0.8460482502441891 0.7614786159746567 0.6904556783382029 0.6107486348653071 0.536863207844657 0.4129607838867901
          0.2778476663304022 0.1443715016321761 0.04267381735065781 -0.14453508369491525 -0.41951132523544876 -0.8262330204497743
          -1.1328611953486705 -1.3033061124271579 -1.4803814603996612 -1.666028754884759 -1.823343850653203 -1.9334733792330252
          -2.0801553504053745 -2.1186208106750772 -2.065023634182608 -1.9751729758755916 -1.855559080001238 -1.668446027088334
          -1.4761355359011172 -1.1741537515348484 -0.8459945564555301 -0.5025306711231998 -0.19884531719748558 0.04147243296371394
          0.29956959702001607 0.5206736418485713 0.6677015475948047 0.7713559130645242 0.877938364134026 0.9631287187251343
          1.0376322547158632 1.0963904950206675 1.1383000189379964 1.1701598056109341 1.2063200962982186 1.2452233691062113
          1.2988463704193298 1.244670085564442 1.1924291571745722 1.1590616733703505 1.1718169629473885 1.1419071447751752
          1.07236827050315 1.0040992805221614 0.9115472146181476 0.8272321738913689 0.7359555051579664 0.6485156244650946
          0.5823164085585345 0.4886521784470574 0.35593266937179296 0.18479944814982696 0.03290899040265508 -0.2226086086242576
          -0.554679195163046 -0.9046568317104978 -1.4289725864863672 -1.7527092622459242 -2.047850229614025 -2.1254361424834056
          -2.1647323640480645 -2.197952674092903 -2.244658433696174 -2.2904076515168192 -2.277234139066883 -2.1555880140305432
          -2.043491781226143 -1.9664669610711498 -1.8239638138672856 -1.6302937428771824 -1.3628813045084265 -0.988006536000816
          -0.5766326896278651 -0.24514306224640156 0.028621709299521084 0.29328478306016603 0.5210708184008496 0.6705992091971623
          0.7792157976331322 0.8847175828235402 0.9725189273607155 1.0425343424587137 1.0957220112537844 1.130564450082763
          1.161567396275792 1.193145948413256 1.2260747036257722 1.2863959716617743 1.235524188224822 1.1933020409507527
          1.192703927599752 1.177998095166941 1.1164514248706314 1.0506432084633535 0.976601098923661 0.8828960184238152
          0.792827395413832 0.7037735677577469 0.6198438462430419 0.5512184582170716 0.4376863640532149 0.29909751760095254
          0.06256238206895788 -0.29030687883756356 -0.5208885232336741 -0.7051412899287922 -1.0964544537554795 -1.6893715675597127
          -1.9824910226553605 -2.215869172374051 -2.3007413777094663 -2.3019287836953577 -2.3020331173570114 -2.301155553884471
          -2.2954137625382485 -2.2831401406146696 -2.2697002835051103 -2.150849935821313 -2.02772810136261 -1.925751585852447
          -1.7736988999624796 -1.528290227257078 -1.1218814940838255 -0.6668795249184298 -0.31575012681532366 0.0013528014017044592
          0.27506746042112784 0.504016755088513 0.6659370584383304 0.7795370993114419 0.8910734116605616 0.9791681888348529
          1.0408427812109418 1.0878298538490785 1.1178231480531646 1.151162373879201 1.1832869880799963 1.2142583238462825
          1.2667925992503235 1.235445594317739 1.255177438596237 1.204740484437657 1.1552791118194154 1.106175214748131
          1.0386180395698672 0.9440507133284876 0.8653062196681629 0.7591392811933609 0.6771143035850122 0.5892011683698303
          0.4882845632441925 0.3763497403198088 0.14793097538095187 -0.1660771282290151 -0.38698555149454866 -0.5600467746948853
          -0.7595388046566324 -1.2556524972009453 -1.8513252902247281 -2.107967110786476 -2.243334296992786 -2.30213680274424
          -2.3023463730370923 -2.302388389183212 -2.302198968305248 -2.298871658054254 -2.2856472380143207 -2.2733883195155373
          -2.2599586733132035 -2.136227112431142 -2.005037161669271 -1.8570138455889063 -1.6123150210250392 -1.2527401118654276
          -0.7848425665810931 -0.38632916005722695 -0.03511655120145986 0.2545099224273714 0.4845038118068842 0.6569162609799841
          0.7764554406710364 0.8891497351652831 0.9776616248794846 1.0318212732591072 1.0744549422477696 1.105073210118483
          1.1366829584282072 1.1702007187117431 1.2012273971437895 1.2708558103912764 1.2697483666902283 1.261378935379544
          1.2107684851071676 1.1406438327603319 1.0794638767620968 0.9995267010883833 0.9000818312790722 0.8445758876504003
          0.7481735087599036 0.6721943363346874 0.5536756446783575 0.4597204716212054 0.24313685789422781 0.03553224105750098
          -0.21225355579144004 -0.3925426698563273 -0.5553332103540902 -0.781256132216554 -1.3623158053729185 -1.9441865792331077
          -2.1656598271533287 -2.2471621567603393 -2.302321216024284 -2.3024300779086593 -2.3024486694183195 -2.3024079902051775
          -2.3008992724589814 -2.2874936056771413 -2.272644085018756 -2.263527811614955 -2.244214477703371 -2.107753554012197
          -1.918036769280539 -1.6534364485058135 -1.3145688030141103 -0.854122727957065 -0.44397912322783756 -0.07139309109840526
          0.2479149482557575 0.47819379989697014 0.6547974239971123 0.7723124604892146 0.8792491399031352 0.9674590184485545
          1.020166386745249 1.0640940128542902 1.0979648044423156 1.1320846785360643 1.162034880175882 1.1918056880699022
          1.3023216933727766 1.275359209476054 1.2561456048990078 1.1907928624626332 1.1185335073713856 1.0386146640961067
          0.958222254683156 0.8773805951818356 0.8200475512708277 0.7298418338643164 0.6402500262778147 0.5087532034326581
          0.3634465201650172 0.19627409067017282 -0.017558123782094304 -0.18784617070327997 -0.3588317717704029 -0.5247141390467568
          -0.791239505532762 -1.3129476843861532 -1.8808044382636246 -2.175301832605932 -2.252553321123264 -2.3023490140555927
          -2.3024466921757054 -2.3024572260051244 -2.3024293165616347 -2.3016179511595314 -2.2869747067074235 -2.2717869033875098
          -2.2628690013043555 -2.2525286542857224 -2.192520700864373 -1.9727644355510097 -1.6854629661169045 -1.3018473547426657
          -0.8117714215949274 -0.44516601284799256 -0.08151178008766691 0.2416951106227836 0.4789841969366548 0.6522171741067515
          0.7702692251632319 0.8627326991911465 0.9606577415488338 1.0172296998479662 1.0619750338606977 1.099114303954079
          1.133226501866728 1.16605979631558 1.193620079099854 1.2960483613805993 1.2810328504986142 1.2328289276881021
          1.1870902507587544 1.0893390013658542 1.0131063579313988 0.9222251983336293 0.8592803016304232 0.8080027540554415
          0.7235844077558632 0.5978194458415547 0.46221989321400675 0.3380310959109279 0.17728124381234384 0.026676217132532917
          -0.1751524681696323 -0.33788850127299397 -0.5185454369214639 -0.7686949494812051 -1.183655926259388 -1.6844805885608245
          -2.023334042510521 -2.2671533975185527 -2.302202773805733 -2.3024220468197822 -2.3024388630681116 -2.3023953980322385
          -2.300898836782231 -2.284063106549545 -2.273373987434213 -2.2660591719853374 -2.24133439681772 -2.1656064056000397
          -1.9714374679153204 -1.6261233300178017 -1.1403327647860886 -0.6971826070645367 -0.36653694409871695 -0.043799936004879296
          0.2525979994746886 0.4841794779707518 0.6499947523631032 0.7637168499598564 0.8609687829680813 0.9620713350008894
          1.0227896545528237 1.068384407293812 1.105014540339548 1.146038965315619 1.1804859437161759 1.1988790387399395