<VTKFile type="PolyData" version="1.0" byte_order="LittleEndian" header_type="UInt64">
  <PolyData>
    <Piece NumberOfPoints="2601" NumberOfVerts="0" NumberOfLines="0" NumberOfStrips="0" NumberOfPolys="2500">
      <PointData>
        <DataArray type="Float32" Name="zvalue" NumberOfComponents="1" format="ascii" RangeMin="-1.953120215138788" RangeMax="2.231894221359395">
          2.1708576883106665 2.2013120948821236 2.1823519227594046 2.154643799416474 2.1625428350356217 2.2117592017845236
          2.205978245013181 2.219281682291378 2.2282874566478386 2.231894221359395 2.229615500162801 2.2068159055027996
          2.1580953516970465 2.1268129267474882 2.132817453996424 2.0863359245408755 1.9371146169725388 1.8736922007581276
          1.7574736280717413 1.7411886817834292 1.714773258402614 1.7106255510753587 1.7349847683550355 1.7278892461868047
          1.6736460679470055 1.4312849620436128 1.3876654243383093 1.3929854591139408 1.381681029619047 1.3474222705479335
          1.3250915255800255 1.2540820787081497 1.2369277191556116 1.2116976978305427 1.1803760263978345 1.1039929134518685
          1.0778256616635309 1.0610450247593162 1.0096150732137843 0.9722422995022956 0.966619795442525 0.9286234282013414
          0.8820887013412982 0.7955743017982343 0.7565119788439197 0.7483999266163883 0.6950613862886205 0.7208677374305082
          0.6872293095354582 0.6397568428905596 0.6713172886549644 2.157809692500806 2.172760006246443 2.1761778343672757
          2.1475284764509275 2.1612485960377557 2.175298287565999 2.2218426506519005 2.2093369337126068 2.1831142801592485
          2.22363099036956 2.2153227398547775 2.174245907775698 2.1258258044827185 2.118915689175342 2.1026478071271377
          2.0506783175049215 1.8549104303968171 1.7809174084345014 1.7396562945992877 1.7023113663158076 1.686111520744059
          1.6937101029286132 1.6804871347750732 1.695820741353007 1.3581502248234913 1.361971901450497 1.3657673470873695
          1.3849887277145023 1.3633963104948539 1.3003586528665179 1.2901310681703206 1.2469939597288324 1.2126976637635014
          1.17719285486511 1.1551545221044874 1.0871864896717014 1.062165695985496 1.0317856734586697 0.9739231567780605
          0.9499438478714887 0.9429837234870756 0.8920762688070589 0.8697257417636864 0.8090829817845193 0.7504607120661144
          0.7110815314069837 0.6755329564365524 0.687399756805514 0.5947435966334302 0.5804132356571645 0.66236576605537
          2.1522525599337494 2.170185109645143 2.140732458842106 2.1420873228096977 2.1722559216462693 2.1731978463605057
          2.210955566417693 2.2252083282498 2.1946675406253373 2.180289216623515 2.1980665926690914 2.1390094503350507
          2.1425652104092205 2.097722677589231 2.0528749002121898 1.8594350787003127 1.8079865983794245 1.7364085018814153
          1.7024023560888024 1.6719696966803912 1.6482077110874174 1.6765928583806553 1.572164395890341 1.2284250434929171
          1.3106895209181482 1.3170678206418966 1.3391709099535918 1.3387918929760996 1.3432421604226297 1.2907460109417042
          1.2503450992041585 1.2161483557606063 1.1963712920743532 1.172688018162862 1.1637120982053328 1.0956747463227021
          1.0406765582318136 1.0031323674509782 0.9440889282522659 0.9294426196686858 0.9148435716563232 0.8721325503885252
          0.9052691032805905 0.8038171008259211 0.7515855449505006 0.6896504951465661 0.6668726854218897 0.5906643651864748
          0.5950141963365617 0.6350604403001755 0.6913099569409284 2.153266988782635 2.1891815177979037 2.1385630084959955
          2.151650417510396 2.20383512404025 2.1959729551504608 2.199082049841774 2.200233719740661 2.1851081089602373
          2.1980779211900483 2.137349621415187 2.1277051390146267 2.122732896927128 2.0505854997848147 2.0027073858712474
          1.8195548768318381 1.757377396905258 1.6753549907050715 1.6664981269064791 1.649463312902076 1.6372860828244367
          1.5854153038222194 1.150903929642227 1.1185310923032739 1.2301064546427445 1.258548856542503 1.282689448416943
          1.2516718741353738 1.2243398194713944 1.2124730139067998 1.218987256328105 1.2131641757177198 1.181010392706478
          1.1389759109399409 1.1167355509425896 1.063001114177837 1.0265393514529286 0.9844050971651516 0.9361723801198842
          0.8837237687121582 0.872921948295099 0.8286666725042193 0.8041325160855263 0.7424727349241907 0.6819506928164676
          0.6441622237456467 0.6518879549703868 0.6260460857220729 0.6460475592307167 0.6879191929616171 0.7725959102183301
          2.1703685355807854 2.1925449428872517 2.2048783937747527 2.2166355729664406 2.211530881232424 2.1869082733374743
          2.16626274786356 2.1457631544381215 2.1345344580705015 2.128799457703098 2.074769813248259 2.064541092706466
          2.0425632281906707 1.9933406954034205 1.811302214555865 1.7352156386165878 1.693248466838476 1.6569257996236098
          1.6242774588248163 1.6155653605299298 1.5451165714872457 1.0748638930533991 1.0970173004110515 1.1595909713806143
          1.1045765797547022 1.2141100709196653 1.2124037225020248 1.1774621482699366 1.1325032296010893 1.115076879378124
          1.1286967112372912 1.1864539804524077 1.1628714187107225 1.134124603233198 1.132999316488879 1.107761533350513
          1.044585662193621 0.9867949601771766 0.9270789818568183 0.8438576047877817 0.796636430118255 0.7650561027589448
          0.7485252410178085 0.7432887186862696 0.7181902303116701 0.6764314087560761 0.6300665144886629 0.6910419234579764
          0.7086261780391858 0.741685895050261 0.782071738055379 2.1746164423023293 2.1852478531509485 2.2070593652874786
          2.2057511221180444 2.1791363444430867 2.142601694667062 2.132687254295442 2.098347294347259 2.0828686040243602
          2.0537950043754494 2.0089533878374692 1.9833109143641772 1.966735244131317 1.8937091184893777 1.7374884402344566
          1.6902089795734987 1.6231010121805491 1.640390459243632 1.581417233886415 1.5145062715858255 1.0821923518156575
          1.0460106847912742 1.0386214150322337 1.0745609403792733 1.0564219185224892 1.0473110469630094 1.1411236360675543
          1.0960545561169952 1.075597290011044 1.0270218137695564 1.1312116661311291 1.151196757689726 1.1214489891370212
          1.100768001270615 1.0771969371849741 1.0841356895339964 1.030726275717003 0.9514051605913649 0.8805774727717398
          0.8355748389703637 0.7930815743883118 0.780944229450535 0.7691616892172054 0.7334336274948668 0.6818014389031067
          0.6864628671625096 0.6779672214578076 0.7047292663836769 0.7125657797046062 0.712811976056979 0.7353753019565566
          2.148247287937989 2.1401762899861243 2.1435020758109107 2.1561332174340007 2.1597793239997567 2.1290742399676796
          2.077835588501354 2.026418405505032 2.022109163916191 2.016355060304514 1.9865034230502083 1.9276440876113448
          1.8882445788710471 1.7413800965204673 1.712061558685254 1.6337472326725215 1.6020988639994973 1.5746427831574206
          1.4913712352712407 1.0782934988250492 0.962610318835807 1.0169782768710618 1.0471623786555415 0.9719705562503563
          0.9490392135991828 0.9618996880891703 1.0808637902856304 1.0384259569903767 0.9548810877495703 0.9526326190136222
          1.0422129414238706 1.1045686796963807 1.1016072163786477 1.0786226464720985 1.0020230767962406 0.9894442828445763
          0.9499331512892107 0.9039993530450482 0.8597179785364498 0.8349692372227294 0.8248199358052343 0.7997923831014419
          0.7948744187089085 0.7436548668987211 0.7020752498018443 0.6829933416041678 0.679995969598025 0.7270511585390899
          0.738212391488733 0.7007917340368937 0.7362388295204956 2.1002379552796264 2.0871069988066635 2.1232551506060044
          2.1413229444682162 2.1271129198120433 2.0676697010091605 2.0426384274213585 1.9972127785084577 1.9871930620294163
          1.950800547984886 1.9154317780108832 1.8996880908415605 1.8682123613247277 1.7030993220703723 1.6603599621528844
          1.5940284078642304 1.5740780045935783 1.4761534855094203 1.0230318210486757 1.0230334495805682 0.9883483576649087
          1.0122453358119294 0.9719535078297112 0.9344463731519518 0.8920635670908595 0.8784462014738055 0.8377582043721061
          0.8875073277862859 0.8773061297604839 0.8267052578278956 0.821088734847013 0.9676096921692109 0.9462233971419788
          0.8973579013659502 0.8874574651656478 0.9035059734331489 0.8414955671053059 0.8288026191160917 0.8052673371708333
          0.7761449964155771 0.7923144174212103 0.8115538730542362 0.8248806497284676 0.768997165754623 0.7093650359013808
          0.6478634907878515 0.6423184811387993 0.7071373008027181 0.7170990489112152 0.7766559166947865 0.7928169291051439
          2.0532278935003783 2.0898707808933614 2.1233142521759034 2.0688557863138493 2.0575180964721893 2.0548773780877494
          2.029087865073908 1.9894056904853166 1.9702261123148097 1.929522877951126 1.9036487852652852 1.8823698681169356
          1.6979587950950685 1.6815562149004222 1.6351300528702957 1.5649975964904803 1.442473205601457 1.003368064393851
          0.9639996988512706 0.9773226265571548 0.9566574897332829 0.9388907396084333 0.9031736331051727 0.8188766176338653
          0.7303623747390509 0.7004230387210673 0.6923264335876588 0.7132932048764368 0.7648304293425239 0.7095477008269269
          0.7221054344345695 0.8573240614497772 0.8367330025573848 0.8547589976676997 0.8268442871877097 0.7725584739112473
          0.7784953917990499 0.7948062556560974 0.7686178520682261 0.7805617751807196 0.8051913530288257 0.8151950954921988
          0.8141930656329979 0.7572449250792077 0.693071348655696 0.6425773878979646 0.6626870685589813 0.6260325724495722
          0.7194718836963606 0.7886221373747847 0.8203079225697479 2.0791317402783682 2.057847894436099 2.031056610553154
          2.054935897638904 2.020037698588721 2.024079776617557 2.0083841943743357 1.975605993238526 1.950961190923549
          1.9109959215873327 1.8944478607730053 1.8721175146098217 1.6548511151257768 1.6310762662690867 1.5812573548087998
          1.4473163281211618 1.0069870194805364 0.927178604278489 0.9352664248154765 0.8732846053239891 0.85359655787318
          0.7812713072814017 0.6869766128151747 0.6305894361546845 0.63491621412569 0.610039331968146 0.6249389219783922
          0.6082242573983057 0.6740175788369496 0.6458009235584112 0.6546379290023991 0.6848808005569258 0.7127463997600679
          0.73087742161996 0.6756929748306382 0.6879693422942972 0.7183141568548237 0.7443087256988764 0.7331645683288971
          0.7462352972155688 0.7317123235122406 0.795821651747135 0.7940952739299836 0.7604073276866445 0.6738593581298162
          0.642097394826135 0.5977867933108606 0.6249494509082446 0.6962998095394114 0.7545541150931101 0.8018779294614212
          2.006563826261414 2.0088719024298234 2.0010898455392963 2.0042405145878623 1.9939682462618196 1.991942991562608
          1.9931097214616924 1.963090203462324 1.942288163749535 1.9048402507983764 1.8770236941745284 1.6997759690079879
          1.6365776989997662 1.586173256364159 1.47226221387177 1.014809588791462 0.9209846883898171 0.926314502395248
          0.9559878019118672 0.8482470718157794 0.7951542369600069 0.7425622602368745 0.655128163408046 0.6011675488959616
          0.5961183912699608 0.5568403444066305 0.5180388257080882 0.5307163358352598 0.5304133847910514 0.5955179151334838
          0.5775076742089299 0.5655366730738645 0.6554053156930767 0.6148279472574842 0.6565211332068303 0.6446307156467712
          0.6596471602455877 0.6480178342536793 0.6613386635420421 0.6934828056699825 0.6812227790070401 0.6754463853963119
          0.712547248229102 0.7006529567926748 0.5905974673924175 0.5559296451950448 0.5703202190947068 0.5988453592166788
          0.6812815286193941 0.7354096425407487 0.7496858240203922 1.9950693884319446 1.996233514906684 1.9911730953976887
          1.9786934279810535 1.9652095611801814 1.9635752728216902 1.977034824535454 1.9453231401206343 1.943970348150859
          1.8890852876789468 1.8605090012416516 1.6745989175913267 1.6028495606619189 1.4756575743790856 1.082273702598022
          0.9093990001748008 0.9164316177927738 0.9344937597377397 0.9259373327113358 0.8283189148389939 0.7372489393890299
          0.6804812963295246 0.5933859423600308 0.5617176418884472 0.5393444081484388 0.460709484272499 0.42666311202468155
          0.4119259032208546 0.38667270111099405 0.35231061862761975 0.3888609078642555 0.45644399499939786 0.47941746824295645
          0.536644644723183 0.6017355153011034 0.5431757229848916 0.5386963920150206 0.571819493951717 0.5872841642326823
          0.6050557131750599 0.6256499818362317 0.6108169163522751 0.5805328529994948 0.6403970667788397 0.553841325462516
          0.5102298862757926 0.5089616095858717 0.5443327538146909 0.6562089138959606 0.677903858839203 0.71027386698777
          1.995566937839612 1.9767689441616432 1.9800265491013986 1.9794853723473744 1.9537321812257344 1.9508803982070606
          1.958422441603229 1.9407955609272236 1.9189412129676737 1.8658965825194953 1.698619872574874 1.5923800465545845
          1.4693811296541164 1.0946862141554132 0.9554524805404643 0.9210933668345056 0.9108680931089647 0.9082317838737913
          0.8614521653895424 0.8109195561999298 0.6772761281348739 0.6514651708268531 0.5348734004813381 0.5086889815036685
          0.40097059193651896 0.3371078118014819 0.3064164102911258 0.27365826910718954 0.13923620525897484 0.1454870153869168
          0.12823976208183926 0.2205228373739411 0.2944663759270618 0.3980453064493563 0.4737294949644298 0.48343169927063195
          0.5019182922340203 0.47804606671748556 0.4743318280768785 0.5254260676520256 0.5049265291450197 0.5050642295844499
          0.5164197316528548 0.45493587325198864 0.4456939549493526 0.4423828386775296 0.4423323630125454 0.47721661164391654
          0.5822329669847388 0.6306479376281643 0.7231212957836992 1.9647805005987873 1.9593779954352768 1.95461605527291
          1.9736776729050034 1.9456381241448528 1.9387052820716977 1.9572010351731326 1.9292860317147082 1.9023772090534863
          1.7023205786465785 1.617774722782892 1.4605642285219476 1.0660761730157273 0.9649717534155001 0.9415836906117168
          0.9020774799762441 0.8796296916214306 0.8635223108439347 0.820617130403579 0.7539062501967824 0.6066517686333024
          0.6098562754105041 0.49603439208012057 0.37614721344324775 0.305799705676908 0.28776299440372305 0.1870024829677773
          0.09266826632818236 0.08445118044311281 0.07896766551820145 0.0006823952701322689 0.08358811484836183 0.15281250868924326
          0.31017528745378875 0.3240827261944792 0.39553260349432173 0.41524701155934857 0.415255038851007 0.4214597874388386
          0.4318261110941363 0.4104255446574485 0.4429388980512477 0.44072753314543023 0.4046291652638209 0.40948872424799626
          0.3931120596782593 0.4184948439879187 0.4704246474204827 0.5465054005525923 0.6309238382476571 0.7004796652420703
          1.954209852624565 1.9324579510184217 1.9340743703738823 1.9557049096333483 1.938390851731375 1.9392617090708368
          1.9522753245247229 1.9113447512996398 1.723759203476444 1.63371819220638 1.4819067883267514 1.0786116198742741
          0.9476243479068474 0.9537605626526499 0.8914422562504735 0.8733860500714976 0.8604294002765642 0.8476186590256537
          0.7833012499718002 0.7058141880542227 0.517165073639661 0.5447328145020055 0.39258675486807043 0.3351226094119166
          0.27547409215203666 0.14609936386873973 0.09257378306460516 0.005155459495382907 -0.015842723709726603 0.008134721904510336
          -0.07644230725546465 0.002981184270606374 0.06344584808616853 0.2026951940338812 0.22727099276594873 0.23569065815750295
          0.282010504277928 0.31975662413335326 0.33668948046721536 0.3159459631077957 0.30610564783175215 0.2988789883300055
          0.2945960191088938 0.32477079816527027 0.36116230053864784 0.3962038848077488 0.4137698378729475 0.48902214403672756
          0.5410098407465223 0.6200695223589624 0.7014999906207946 1.9116279008198755 1.9013746937261904 1.917044520792559
          1.9349650398980893 1.9305192336669563 1.922478612516431 1.9150887269354464 1.7274888904350851 1.6378008886395963
          1.4948431886116833 1.1436638665260606 0.9449802572530613 0.9169331493812009 0.9198025103209962 0.8773267545602358
          0.8443867324793329 0.8219198747909061 0.7982707587608133 0.6907365357424834 0.6242574964190013 0.4785353723911318
          0.38867690145956996 0.3218162584324667 0.20783733988889394 0.09708103630345427 0.0032914056466743077 -0.030600788984412517
          -0.0983526937552738 -0.11534595452795586 -0.06486844514472773 -0.18428756129608895 -0.2121006423903341 -0.11504023790773102
          0.01164870839666466 0.11127872324441732 0.1461069862385741 0.17580197389553773 0.17285029158598506 0.211228576471622
          0.2020917134457613 0.21730433545248704 0.16680867415085837 0.1390539618130292 0.2052134541015569 0.29097799909671435
          0.3522806974793977 0.3849185842707265 0.42177039657791454 0.5465757279802153 0.6268114546984211 0.7142252627961005
          1.8860484795535417 1.9096089207968 1.9028986776331789 1.9052216004304106 1.9193680102693378 1.8960483774418815
          1.7089643327433268 1.606050567167376 1.474377860026109 1.101975671407327 0.9360826256017966 0.8730632627602618
          0.8198869901765612 0.8464742687870517 0.7992786782697363 0.8034664633949736 0.7453230542623547 0.7035306807938567
          0.6066572277538544 0.5151924011077901 0.3638644135553841 0.24467649720547052 0.10199052141510102 -0.00317112607270371
          -0.09099854729381583 -0.14606330964888062 -0.21824794633544642 -0.24259917945247428 -0.24886834926264415 -0.23860811691314157
          -0.33885439136800216 -0.3738900328926007 -0.25064066812401303 -0.1355349837525618 0.022611857997724683 0.02236108215464327
          0.1153436155455203 0.11971847668059139 0.11935724471680162 0.09253726960172329 0.0608172230401468 0.06028508978441054
          0.04577096699008951 0.0957646973770758 0.22391466201297633 0.2891975458465846 0.34683769787394736 0.4209599671767508
          0.4830336259519764 0.5967440400956981 0.708903797766412 1.857143527016232 1.8879605762843754 1.859783058806313
          1.8575625523750492 1.8861167490678992 1.649396149013081 1.5729035718795592 1.4017272044033542 1.0342561273396949
          0.8445966863876903 0.8461337753686071 0.7534234149573873 0.7653502671453151 0.7221401179400295 0.6705503759410004
          0.6618429679550504 0.6176439967121041 0.47311550919624895 0.4909968766104104 0.35460074131137714 0.2086732865883032
          0.08576525423568919 0.008468112961720934 -0.09036367559880003 -0.1960979823443376 -0.2809898061038769 -0.35403849864000736
          -0.37236541606499424 -0.3542885499723299 -0.4129483330489564 -0.5231616790445539 -0.5661241539228783 -0.45436887356001393
          -0.3373873218366849 -0.1784182900666495 -0.05781364563702663 0.017332781908902795 0.0404129524388898 0.10002105452045439
          0.027691383393995832 0.04556152718306451 0.0014805318895491938 0.010793908254879027 0.06624091843631588 0.1318404044883562
          0.190248881762693 0.2957475958725334 0.3740382528165802 0.4760863722482213 0.6285206504837831 0.7243318856251566
          1.822856071888903 1.8594523097581481 1.8376448560245537 1.6380973936632095 1.6356902820918238 1.5413363495353272
          1.3491776855964863 0.9613967862035128 0.8585473493947091 0.7958103561057647 0.7666730478496493 0.7382636705310714
          0.6861084784191515 0.5671942408208298 0.5067593259991615 0.5319273631161883 0.509362461466312 0.3998395476308401
          0.3836441470519808 0.23669842330510102 0.15217763971421563 -0.0017536391016607501 -0.12689595090547956 -0.22460845423178696
          -0.3949510679673307 -0.47699002879167024 -0.558539278865644 -0.5890031377950545 -0.5913177388429636 -0.6314503511349073
          -0.8396875498547577 -0.7888848277473106 -0.6255650696071545 -0.45699931584214826 -0.29824006206028164 -0.19314427691619837
          -0.10003433424279488 -0.07897715312605859 -0.07626442399362328 0.016466177662972228 0.04258962689388308 0.05619615457429769
          0.036912438020571176 0.03261763133016587 0.09337793652394401 0.1545912279895602 0.2529915620770013 0.37592598267625504
          0.49296596975374524 0.6418184741122255 0.7583168125508791 1.8073206359364928 1.812277327050318 1.6240544605442682
          1.5645895360425703 1.5098985185899227 1.301182311675426 0.9378749738282134 0.8941042255848054 0.8259145193724567
          0.6908966489136823 0.7290739695274706 0.6244939893353912 0.5943740423694169 0.46959532859146147 0.42205660019816205
          0.46872026313967713 0.36673026551760574 0.3340937052553135 0.3196256993743609 0.18444977907612484 0.03317074315303351
          -0.15763146097653158 -0.40589552241653515 -0.4508990733513711 -0.5582322086009139 -0.6428031447690156 -0.7727275147584758
          -0.7886662296986866 -0.7409048364723267 -0.7723645972612807 -1.0774442171385188 -0.9181149259281632 -0.7108660916771488
          -0.5750635071840285 -0.4604618566027689 -0.2598609725539053 -0.16799430863451761 -0.14820974346854723 -0.14752624341791415
          -0.0854816445911357 0.05168133592624134 0.08311349228762913 0.09287887917262534 0.07672194936367148 0.09206133161107254
          0.18374828832105797 0.2761116785385632 0.3677229296286336 0.5197024477992884 0.6570946107651469 0.7677494868016351
          1.588573389204784 1.542160679439997 1.4774768542691294 1.4224613959560057 1.3095875701339712 0.8782902913413577
          0.9035212352490208 0.8346926853696002 0.69507453363769 0.6941156921902911 0.6373339111966443 0.6168967285512831
          0.5749801069894949 0.40345431592355074 0.2924681904733965 0.3166126423513413 0.2808885390899182 0.25710869896465394
          0.1949911067948224 0.027779678090746156 -0.06935077626961154 -0.3339581618938749 -0.5620887001009056 -0.6371775910196346
          -0.7013312638289851 -0.7899862838327812 -0.9011608812106164 -0.9091926024063167 -0.8363976659796408 -1.142008093194825
          -1.3388579339166273 -1.037394780635319 -0.8727523221205015 -0.7146814464864634 -0.5289282483262459 -0.293541925391881
          -0.2463833086694846 -0.18998619112425688 -0.1566715926044088 -0.12365201927660284 -0.04588870884853741 0.03492610017486702
          0.09567142706609534 0.0952122066435171 0.11706251891725349 0.2121892632191462 0.29280234380811765 0.4043747661545736
          0.5588320237976913 0.6554145383372579 0.7772991864460389 1.5013208943722718 1.421528399617677 1.366240211601692
          1.219777642401481 0.8930010086945426 0.7726362077355658 0.7291387138408151 0.5810819217994968 0.5680361807738961
          0.5517180824173602 0.5464327213802308 0.44321619960172737 0.33195548046631473 0.22386911048121624 0.19812117244285207
          0.1295447511127006 0.11843765651655636 0.15384148487784433 0.14353598524789482 -0.0021835187510585523 -0.09226165725583242
          -0.4239738807558952 -0.6982602897611005 -0.8243168513939205 -0.8543706816975202 -0.9443731441342137 -1.0337464668022243
          -1.0729689891854164 -1.0178503492856517 -1.438526448821631 -1.5821751908584174 -1.2925369601796708 -1.0329962269218806
          -0.7556786940548306 -0.5307993059877847 -0.3772362623375939 -0.29917546237199527 -0.20734973915412103 -0.16487166071321094
          -0.14700572581761556 -0.08675281729329237 -0.012903096130340802 -0.012886794010864452 0.1286643612100341 0.16970518221188619
          0.24924547324473273 0.3386865310896222 0.4508712904686869 0.5558287926545903 0.6402552421868173 0.7300927176132562
          1.3884931653505324 1.3244591174441172 1.1688225131760306 0.8561434340934976 0.7987884137632928 0.6100305232197529
          0.4800484726651492 0.5192516764695922 0.5464995339587837 0.43726826818713405 0.37303476594810436 0.3230992647576708
          0.1991043945323789 0.06163660877703648 -0.03867931672788077 -0.11886262320434084 -0.10427655048954348 -0.004435191630996893
          -0.0015735721819545322 -0.14287042487749593 -0.2638538157192946 -0.5877013158852246 -0.9584662085430826 -0.9903112930517919
          -1.1182670497998999 -1.161995033423036 -1.1894268396272856 -1.242301986338443 -1.6026793146401601 -1.8225561248119995
          -1.7885625428635072 -1.4870193230628281 -1.0665299530450296 -0.7108652422948996 -0.48993012056650664 -0.40083162036246284
          -0.33193389118298244 -0.20790609170131272 -0.1577793383217343 -0.14328361276778678 -0.06487588628667822 -0.021911235749195724
          0.0024573744704412376 0.042477552343923024 0.09866224754082002 0.25431553895912595 0.40525844142428313 0.517809574304812
          0.6116678755259015 0.6759858913685975 0.7571245006335438 1.2966039999411685 1.1003814099530826 0.7663454804491744
          0.791010227958507 0.7098577736350805 0.5298689643426936 0.41523906290313456 0.5361775986947364 0.4459906414518191
          0.3787921321648784 0.337833497207267 0.2567421135456583 0.0854728094118012 -0.04243571077659759 -0.20040777685283928
          -0.2750845155541086 -0.24046034242567202 -0.17703321186683613 -0.13150616479347582 -0.2382483095844179 -0.47413846672803756
          -0.731646372341734 -1.0899137368213525 -1.2374319489952177 -1.26535760717243 -1.2663633950337574 -1.3079724392147984
          -1.3848168764779152 -1.7798602294611756 -1.900315941704752 -1.7428127529416186 -1.4334392433797667 -0.9663732136219644
          -0.6996669514411833 -0.5256318110027612 -0.42602677157313973 -0.33181054184306774 -0.21466966705523147 -0.1598933237229593
          -0.11795452994347472 -0.09767817346448761 -0.021922811579388808 0.07955171631443729 0.10412907919272958 0.12444760322995659
          0.20481393452192978 0.44249580608537314 0.5623926932061563 0.6079292348879473 0.748274709324741 0.82770827636053
          1.0749166277185207 0.7864624743477553 0.7586039216909187 0.7086502989801058 0.614554919743054 0.44393393326382447
          0.48837402920656103 0.49021168636383666 0.36722283991905863 0.31798890627958754 0.21731325652433986 0.07881233109074436
          0.011072359938687586 -0.136865226169602 -0.27538811444497985 -0.37848353665819695 -0.32956077966527453 -0.24487211079025853
          -0.2574889045969632 -0.3168412316672059 -0.5393532964727085 -0.8849895629368353 -1.1436253474528055 -1.2614337610057453
          -1.3148267590232936 -1.3594594987424378 -1.3708211386675746 -1.5584419754364227 -1.8081246894780587 -1.9292545496620241
          -1.6346110046994036 -1.3248188965567935 -0.9137102475420324 -0.7315685116135762 -0.5249149652637122 -0.43834831311973416
          -0.338320206474849 -0.22469038489064797 -0.13495756640156867 -0.08009935951943799 -0.06371249723627338 0.029333385634370015
          0.10286060498165343 0.15604772660311694 0.18529886244067953 0.29611629573124665 0.44226342399744156 0.6243894770896372
          0.7025033327384402 0.760396850865797 0.8415849764787605 0.778066775503486 0.7804255546849043 0.68803416721509
          0.6043187783646434 0.5410506464600606 0.4784062343191708 0.45862340110040123 0.3873378153939828 0.2425906005744529
          0.13620584381883527 0.07552278040359162 -0.04192359570664919 -0.09884427562804818 -0.14475254034552726 -0.3023597711993839
          -0.352296839578686 -0.34640203386123014 -0.3033687825829396 -0.3426660959753469 -0.39181373936830477 -0.5682875905246614
          -0.9072044756261389 -1.140474136801216 -1.3353182685820062 -1.412078000771345 -1.4234345431650937 -1.4063724100519883
          -1.7993036972094694 -1.8925483140465857 -1.9253902805299765 -1.5067677134048405 -1.2139180452534173 -0.8840064043867868
          -0.7346565509985659 -0.5492486498931693 -0.4375074950961693 -0.3096833067016243 -0.2058193866240315 -0.1052255401152334
          -0.05587612082999027 0.017710964240527725 0.06683818995723416 0.10991687496427233 0.19776077399064204 0.26562896870811536
          0.3874689888480172 0.5337847784901861 0.6341342005266332 0.7255857896021891 0.7936904348864511 0.9112586563095085
          0.8184768520371207 0.7510586128546577 0.6096719542570465 0.5680808292751326 0.5685694008200605 0.4135715970104709
          0.39096257747526447 0.3104168826306404 0.23183123260541258 0.11122208768644225 -0.04309182750582267 -0.12746669949088996
          -0.12490555214299105 -0.0952583155715997 -0.18170810802161413 -0.3219998744881116 -0.3205262625465091 -0.3371313569152254
          -0.39074221847949514 -0.44292571439755735 -0.5988212542175954 -0.8201112359533813 -1.1138342923834856 -1.3522071987336262
          -1.461248134147777 -1.4724645134679275 -1.5524607052667045 -1.8359550048206934 -1.948673034495182 -1.767088273833538
          -1.3410398524261629 -1.0578909995968961 -0.8430117653395947 -0.7154804967735318 -0.6118279036565435 -0.40961998171632735
          -0.2605134551836838 -0.13811080681269353 -0.08646462027716689 -0.005206190004706315 0.05730580923688598 0.08969562078280169
          0.15780828545098466 0.2473901914922929 0.3320023525269298 0.509491602565089 0.6005590475985779 0.6744988922131445
          0.7543159667131213 0.8585776598452577 0.9338114947801855 0.7806551634354438 0.6774364127910774 0.5865790346718073
          0.5122340762399341 0.4764720450583964 0.3555338369240504 0.2612967166799193 0.152445842473177 0.13194477921784328
          0.03194616129908082 -0.09503772475323949 -0.10889792952850734 -0.12636658044298446 -0.13481868661308447 -0.16485971177588393
          -0.31769428684611617 -0.29005846204715446 -0.40721956522704245 -0.4090860277474898 -0.44719132634654657 -0.5852054713194098
          -0.7637252629476832 -1.1073805795355023 -1.3787004656121284 -1.5052600440128798 -1.4623737429018395 -1.849965595753739
          -1.953120215138788 -1.9242491424852044 -1.5055132741223844 -1.2387899714847734 -0.970729423639702 -0.789016547451487